19
gdb 104	5.0653672	0.922357	0.882612	2.5745	76.71	-0.23473	0.08767	0.3224	1369.8725	0.156045	-422.450071	-422.442042	-422.441097	-422.48369	30.482	
C	 4.4691056475	-0.6865303813	-2.3773364169	-0.284452
C	 3.4995903033	 0.1121573027	-3.2273303038	-0.289168
C	 3.4814176389	 0.2196105022	-1.7223936692	 0.134622
O	 2.4544122751	-0.401648964	-1.0070570486	-0.260006
C	 1.2835630288	 0.3461816863	-0.9509719492	 0.182657
C	 0.231812227	-0.1435429221	 0.0664774754	 0.006449
C	-0.426262504	 1.257132064	 0.0216020695	-0.231194
C	 1.1039179609	 1.4224664726	 0.1698400053	 0.00789
O	 1.0942791845	 0.3342802699	 1.1722360435	-0.310309
H	 4.2802650314	-1.7494929328	-2.281578726	 0.12862
H	 5.5157971994	-0.4052181068	-2.3672000054	 0.115571
H	 3.874099081	 0.9489125497	-3.8066625095	 0.113548
H	 2.6880619505	-0.4372749509	-3.6913061228	 0.119732
H	 3.8446395016	 1.1423866734	-1.2710872787	 0.088586
H	 0.9255220184	 0.624317272	-1.9513843339	 0.070092
H	-0.2219842759	-1.1291490252	 0.1676786238	 0.098579
H	-0.9095682702	 1.5859207257	-0.9023750586	 0.096835
H	-0.989959031	 1.5116477865	 0.9179396242	 0.117194
H	 1.6880115828	 2.3144616579	 0.3964797708	 0.094755
44.6415	77.44	141.4337	247.7023	347.8224	387.9349	456.9787	552.5674	664.5029	754.4009	763.0408	782.726	816.1652	840.5556	875.6048	881.6094	909.9765	932.9401	983.074	991.6353	1025.1467	1032.5105	1052.372	1072.5018	1124.2612	1127.473	1138.807	1156.4954	1166.178	1188.3847	1193.7483	1199.8021	1221.0082	1243.3116	1253.1641	1293.5601	1375.938	1424.6078	1453.9758	1484.5987	1498.4349	3016.5725	3065.2573	3105.1606	3119.7759	3127.4525	3135.5498	3144.0207	3161.5512	3220.354	3236.1829
C1CC1OC1C2CC1O2	C1CC1O[C@H]1[C@@H]2C[C@H]1O2	
InChI=1S/C7H10O2/c1-2-4(1)8-7-5-3-6(7)9-5/h4-7H,1-3H2	InChI=1S/C7H10O2/c1-2-4(1)8-7-5-3-6(7)9-5/h4-7H,1-3H2/t5-,6+,7-
