19
gdb 388	3.2884519	1.5048468	1.2996705	0.6568	74.78	-0.23273	0.07945	0.31218	1034.8334	0.158198	-422.528793	-422.521278	-422.520334	-422.560778	29.588	
C	 0.6081814041	 1.3538421502	-0.318475401	-0.327852
C	 1.4205710134	 0.0984348244	-0.0255434153	-0.356248
C	-0.0703618393	 0.0725113299	 0.0229389374	 0.444865
O	-0.7982253702	-0.1231407154	 1.2403868329	-0.32941
C	-1.7657981138	-0.9692705511	 0.5665396192	 0.094314
C	-3.130488069	-0.31260144	 0.3905696674	-0.243381
C	-2.8866459604	 0.6416655686	-0.7911937495	-0.08852
O	-1.9457002121	-0.0318850927	-1.6324594379	-0.258252
C	-1.0625539041	-0.748583886	-0.7990592799	-0.042407
H	 0.605718052	 2.1300204353	 0.4394511535	 0.123253
H	 0.538293467	 1.7094620615	-1.3411613802	 0.126099
H	 1.9230179412	-0.4044151532	-0.8460505814	 0.115566
H	 1.9435818291	 0.0574630612	 0.9238985624	 0.124324
H	-1.7915432381	-1.9718877476	 1.0003238744	 0.082138
H	-3.8699968058	-1.075421107	 0.1246807174	 0.10813
H	-3.4613433014	 0.1982281601	 1.297604141	 0.116803
H	-3.776933141	 0.8467296099	-1.3898248926	 0.109498
H	-2.4725537165	 1.5952508872	-0.4370981709	 0.110106
H	-0.6620715349	-1.5931378353	-1.3612844768	 0.090975
83.1888	172.0497	233.5139	251.7334	358.0132	394.8839	488.868	564.7904	663.3244	717.2151	760.4274	833.7516	845.1164	860.2155	890.3418	904.7879	927.1672	960.1386	974.2957	981.7086	1013.6755	1038.6188	1046.2185	1065.8284	1096.7284	1119.6662	1185.2058	1188.4792	1214.0885	1227.4493	1240.9117	1285.8993	1312.7299	1338.3648	1338.6542	1389.22	1396.6059	1448.751	1468.2999	1496.9238	1516.931	3017.338	3053.1324	3080.6036	3103.2033	3108.8798	3119.5502	3125.8232	3130.8937	3210.569	3225.0635
C1CC11OC2CCOC12	C1CC21O[C@H]1CCO[C@@H]21	
InChI=1S/C7H10O2/c1-4-8-6-5(1)9-7(6)2-3-7/h5-6H,1-4H2	InChI=1S/C7H10O2/c1-4-8-6-5(1)9-7(6)2-3-7/h5-6H,1-4H2/t5-,6+/m0/s1
