19
gdb 256	2.9911851	1.6860406	1.237281	1.3033	74.83	-0.23079	0.07408	0.30487	1023.3525	0.159048	-422.516802	-422.509595	-422.508651	-422.548177	28.989	
C	-0.0149272496	-0.4758363795	 0.2448713417	-0.372255
C	 1.420291156	-0.3567783898	-0.1759735255	 0.054445
O	 1.5361024378	-0.3601061526	-1.6010585571	-0.304126
C	 0.7864766668	 0.8903852899	-1.6709190258	 0.068882
C	 1.6694802061	 2.0772079838	-2.0623944146	-0.224998
C	 1.2596359785	 3.3212130267	-1.263545316	-0.086311
O	 1.4066780093	 3.1058392699	 0.1311423334	-0.237982
C	 0.4885826929	 2.1438852178	 0.6282471151	-0.199186
C	 0.5361573397	 0.8704123928	-0.1622762886	 0.269347
H	-0.719542423	-1.0084618354	-0.3888826537	 0.113764
H	-0.1763308897	-0.5930214267	 1.3134052178	 0.114112
H	 2.2795575379	-0.6648589723	 0.408796617	 0.106597
H	-0.0903725604	 0.7930986351	-2.3233547656	 0.077551
H	 2.7053062736	 1.8301078675	-1.8114420312	 0.12129
H	 1.6207135942	 2.2735393483	-3.1385453096	 0.099151
H	 1.9042008982	 4.1690468842	-1.5110290363	 0.112755
H	 0.2200958938	 3.6111026037	-1.4975606173	 0.086333
H	 0.7458276463	 1.977167176	 1.6791896768	 0.110466
H	-0.5350371684	 2.5596328606	 0.5985824494	 0.090163
144.3186	167.4868	294.5926	359.3212	367.4139	450.8689	455.9586	479.5395	561.1346	687.6483	780.8816	797.9336	875.405	882.9417	898.8562	936.4914	981.4894	994.4076	1004.8522	1026.8307	1039.7699	1050.2549	1085.8285	1102.0997	1111.094	1134.1915	1205.7395	1230.174	1240.9732	1293.5715	1300.8408	1309.8914	1346.4202	1364.9911	1383.2381	1404.3011	1425.4724	1477.9574	1484.739	1491.0332	1500.3009	2939.6711	2955.4539	3025.6053	3050.0258	3072.0524	3089.4785	3103.3333	3106.0931	3178.5119	3196.6997
C1C2OC3CCOCC123	C1[C@H]2O[C@@H]3CCOC[C@]123	
InChI=1S/C7H10O2/c1-2-8-4-7-3-6(7)9-5(1)7/h5-6H,1-4H2	InChI=1S/C7H10O2/c1-2-8-4-7-3-6(7)9-5(1)7/h5-6H,1-4H2/t5-,6-,7+/m1/s1
