19
gdb 191	2.5263685	2.1603421	2.0728452	0.2938	72.22	-0.24231	0.0856	0.32791	831.6203	0.162407	-422.59399	-422.588109	-422.587165	-422.623751	25.934	
C	-0.3921149874	 1.4701910362	-0.0811113698	-0.215363
C	 0.1011372066	 0.1321108039	 0.4888363246	 0.078554
C	 0.8697884906	 0.3634915498	 1.8132536396	-0.23458
C	 2.0212506152	 1.3630787044	 1.5423147289	 0.078553
C	 2.9223764439	 0.8435082537	 0.412443285	-0.215362
C	 1.8739065616	 0.8632038923	-0.707436449	 0.067139
O	 1.0265152315	-0.2786593869	-0.5288069852	-0.278205
C	 0.9830468724	 2.1060865204	-0.3227193962	 0.06714
O	 1.4836401778	 2.5520129226	 0.9439230658	-0.278205
H	-0.9449216023	 1.2987845629	-1.0089835853	 0.100945
H	-0.9897704188	 2.0770829844	 0.6013551498	 0.105697
H	-0.6597932776	-0.6455932466	 0.5792062929	 0.076571
H	 0.1959896788	 0.7677305726	 2.5760541058	 0.102801
H	 1.2719585536	-0.5858366076	 2.1824623244	 0.102801
H	 2.5412157196	 1.657226614	 2.4561625393	 0.076571
H	 3.7404309199	 1.5472038427	 0.2348972679	 0.100945
H	 3.3214229194	-0.1619455339	 0.5576832086	 0.105697
H	 2.2604029291	 0.8569290427	-1.7270633457	 0.07915
H	 1.009427876	 2.9409025823	-1.0237507115	 0.07915
312.5925	361.9491	408.0956	478.3757	496.4736	560.0906	571.686	727.0168	797.801	817.8412	823.1072	857.4828	880.0681	890.6587	911.7196	921.5228	924.5683	984.4015	1000.5514	1029.1956	1050.3122	1054.0488	1065.0031	1070.7035	1162.8188	1163.9098	1196.7033	1222.7314	1242.4065	1279.5496	1299.4664	1314.6577	1322.1576	1322.3892	1342.4511	1371.0097	1371.4251	1388.9702	1464.2834	1472.3748	1482.9098	3043.3028	3063.7426	3064.1045	3090.4726	3094.8568	3096.3913	3104.3408	3116.3195	3126.946	3128.5762
C1C2CC3CC(O2)C1O3	C1[C@@H]2C[C@H]3C[C@@H](O2)[C@@H]1O3	
InChI=1S/C7H10O2/c1-4-2-6-7(8-4)3-5(1)9-6/h4-7H,1-3H2	InChI=1S/C7H10O2/c1-4-2-6-7(8-4)3-5(1)9-6/h4-7H,1-3H2/t4-,5-,6+,7+/m0/s1
