19
gdb 125	3.2428944	1.6150775	1.3921078	0.1509	73.67	-0.25244	0.0889	0.34134	974.5915	0.160087	-422.548793	-422.541743	-422.540799	-422.579863	28.385	
C	 1.4833499784	-0.3810317292	 0.4512347908	-0.370229
C	 0.7338005266	 0.04675773	-0.7844752825	 0.236506
C	 1.5344972898	 0.7359412708	-1.8683079623	-0.161333
O	 2.3501068479	 1.6950200168	-1.1878875258	-0.25774
C	 1.6513532084	 2.1443894378	-0.0226266406	-0.161333
C	 0.8101694124	 0.9672121367	 0.4217225454	 0.236507
C	-0.6016905607	 1.0409982476	 0.9620553362	-0.161328
O	-1.2839493161	-0.0845606034	 0.4002038585	-0.257754
C	-0.7185495759	-0.3674799941	-0.8836643443	-0.161328
H	 1.0313244391	-1.1509847425	 1.0674078832	 0.124524
H	 2.5666282716	-0.3991303142	 0.3964594251	 0.124528
H	 2.2152142807	 0.0873404136	-2.4287154867	 0.111774
H	 0.8529346968	 1.2247170107	-2.5846187299	 0.090472
H	 2.4128717968	 2.4696813516	 0.6931876321	 0.111774
H	 1.0006391654	 3.0049912831	-0.2516818939	 0.090472
H	-0.6899670397	 0.9499606242	 2.0492721921	 0.111772
H	-1.0718624727	 1.9900649026	 0.6542611773	 0.090473
H	-0.8876191449	-1.4323100306	-1.0725383065	 0.111772
H	-1.2195885941	 0.2095667387	-1.6789650081	 0.090473
204.6243	206.951	239.0622	331.739	336.3144	402.3077	505.88	559.0476	611.4936	708.944	764.8746	811.6865	905.9084	919.105	940.5454	942.4693	942.6878	1005.5667	1010.5263	1033.486	1053.2493	1066.1523	1102.619	1106.693	1180.0197	1203.9628	1233.3637	1245.3777	1252.2875	1273.7372	1274.0491	1349.2409	1351.5204	1394.1108	1395.5239	1406.1244	1472.2493	1506.2436	1514.5185	1515.7144	1526.8006	2958.5487	2962.1957	2966.6952	2974.1746	3069.7911	3071.728	3071.9454	3074.8957	3130.7937	3223.728
C1C23COCC12COC3	C1[C@]23COC[C@]12COC3	
InChI=1S/C7H10O2/c1-6-2-8-4-7(1,6)5-9-3-6/h1-5H2	InChI=1S/C7H10O2/c1-6-2-8-4-7(1,6)5-9-3-6/h1-5H2/t6-,7+
