19
gdb 224	2.7590026	2.1441539	1.9462852	2.1743	71.92	-0.2423	0.08697	0.32927	832.9268	0.162671	-422.575395	-422.5696	-422.568656	-422.605088	25.71	
C	-0.5819815919	 1.3136759918	 0.0627143139	-0.205022
C	-0.886355735	 1.2714963851	-1.4465388755	-0.090098
C	-1.9222882536	 0.124007653	-1.4531231532	-0.21148
C	-0.8663062388	-0.8832024185	-0.9798525095	 0.082336
O	 0.0276681182	-0.8214371443	-2.1101932297	-0.265464
C	 0.3757287522	 0.5584307264	-2.0958053034	 0.201464
O	 1.5335658555	 0.7029882625	-1.2962598506	-0.264097
C	 1.3819797318	-0.1252951671	-0.1294669471	-0.07679
C	-0.1170710788	-0.1620309375	 0.2155075375	-0.084256
H	 0.2030630815	 2.0202351384	 0.336768664	 0.10851
H	-1.4802352025	 1.549624404	 0.6390984868	 0.092339
H	-1.1624462218	 2.2136572175	-1.9197008619	 0.066728
H	-2.7518447839	 0.3026582377	-0.7642092392	 0.094267
H	-2.3072120491	-0.152906622	-2.4358665212	 0.105418
H	-1.1517924692	-1.9211913064	-0.8131497645	 0.076446
H	 0.63040548	 0.8929398446	-3.101959778	 0.089495
H	 1.7846640237	-1.1263764109	-0.3218182287	 0.105182
H	 1.9645201371	 0.3442114109	 0.6689532872	 0.103148
H	-0.3064142653	-0.6153530252	 1.189844703	 0.071874
327.0562	350.9417	424.9388	515.2993	535.0428	555.2049	643.1069	663.9619	778.3501	787.1142	848.3055	872.6482	896.3816	908.5522	927.126	936.7704	954.6373	962.1633	992.806	999.6843	1023.7623	1052.8655	1074.2012	1107.3401	1132.5872	1175.2539	1198.8302	1205.7765	1236.3443	1265.4938	1280.31	1298.3648	1305.4894	1320.3413	1322.5642	1346.8662	1363.034	1397.8007	1489.6923	1509.5955	1516.1913	3032.6598	3063.0964	3070.5083	3083.5605	3098.4959	3109.2535	3119.4862	3121.8775	3128.8124	3131.5002
C1C2CC3OC2OCC13	C1[C@@H]2C[C@H]3O[C@@H]2OC[C@@H]13	
InChI=1S/C7H10O2/c1-4-2-6-5(1)3-8-7(4)9-6/h4-7H,1-3H2	InChI=1S/C7H10O2/c1-4-2-6-5(1)3-8-7(4)9-6/h4-7H,1-3H2/t4-,5-,6-,7+/m1/s1
