19
gdb 379	3.2558455	1.5727426	1.4979665	2.3034	74.	-0.23222	0.08694	0.31916	968.2747	0.159245	-422.552477	-422.545486	-422.544542	-422.583606	28.733	
C	 0.6583449496	 1.3314717621	 0.177396161	-0.357128
C	 1.5384030636	 0.1594611324	-0.2444042904	-0.34677
C	 0.0894207292	-0.0462622995	 0.0522912564	 0.509491
O	-0.7937692621	-0.3055442128	-1.0445383345	-0.30987
C	-1.7637094104	-1.2037198407	-0.5192434054	 0.203856
C	-1.9811416441	-0.7029146053	 0.9120736785	-0.262164
C	-0.4726015534	-0.8785403089	 1.1990103366	-0.167117
C	-0.3067452712	-2.3562358808	 0.7912475656	-0.074435
O	-1.1916666753	-2.4878590601	-0.3440638536	-0.269327
H	 0.799374516	 1.7562514119	 1.1661143141	 0.111205
H	 0.3816138787	 2.0442832948	-0.5914608064	 0.124604
H	 1.8383502214	 0.1118764174	-1.2850657696	 0.128304
H	 2.2762280902	-0.2119943422	 0.4598877994	 0.111465
H	-2.5955884087	-1.2748160817	-1.2169510605	 0.092185
H	-2.321954392	 0.3322637521	 0.9604661186	 0.112903
H	-2.6282307778	-1.3553771107	 1.501263944	 0.106356
H	-0.1002714261	-0.6204859128	 2.1894341166	 0.079731
H	 0.7166275778	-2.599923436	 0.487944661	 0.10983
H	-0.6213255354	-3.0478431392	 1.5829356785	 0.09688
118.6416	230.2565	275.977	327.5455	421.9132	502.096	530.9752	559.6374	675.7939	762.6515	806.2666	827.4911	861.6545	889.9538	907.6535	915.6107	934.3084	952.2417	957.1653	976.7957	987.1324	1043.3862	1056.5933	1066.6949	1071.7265	1083.2645	1124.976	1173.272	1187.1584	1223.7706	1233.4054	1272.1834	1278.7548	1307.7945	1350.6132	1378.2146	1396.5367	1450.7106	1486.9508	1502.6614	1523.701	3020.4598	3073.7224	3080.4442	3127.3298	3129.2227	3132.085	3143.2396	3155.215	3213.134	3226.9566
C1CC11OC2CC1CO2	C1CC21O[C@@H]1C[C@H]2CO1	
InChI=1S/C7H10O2/c1-2-7(1)5-3-6(9-7)8-4-5/h5-6H,1-4H2	InChI=1S/C7H10O2/c1-2-7(1)5-3-6(9-7)8-4-5/h5-6H,1-4H2/t5-,6+/m0/s1
