19
gdb 205	2.4136539	2.2969816	1.8351273	1.7055	72.42	-0.24504	0.0757	0.32074	859.6894	0.161454	-422.567727	-422.561418	-422.560474	-422.59801	26.713	
C	 1.491138574	 0.1804946307	-0.1448171046	-0.243905
C	 1.2543209865	 1.7062501751	 0.0308921876	-0.056786
C	 1.4270671066	 2.2289028755	 1.4671847779	-0.240555
C	 0.1120298309	 1.7930011371	 2.138427806	 0.188712
O	-0.8714295823	 2.0051526173	 1.1488828642	-0.249532
C	-0.2888796977	 1.4529789883	-0.0277597549	 0.102597
C	-0.018740575	-0.0787339658	 0.1228423975	-0.06756
C	-0.3633470967	-0.4801277506	 1.5566581524	-0.076545
O	 0.1819494705	 0.4214803195	 2.519117188	-0.285499
H	 1.7806758486	-0.0810009157	-1.1655318322	 0.100043
H	 2.196590141	-0.284733666	 0.5493887745	 0.103365
H	 1.7019672972	 2.3607731315	-0.7173204607	 0.070946
H	 2.2979779715	 1.8213276224	 1.9847916198	 0.10966
H	 1.4897133479	 3.3213510932	 1.4742150898	 0.103462
H	-0.1619524575	 2.3654396132	 3.0280496443	 0.086835
H	-0.8595655332	 1.7868803108	-0.8936410022	 0.077481
H	-0.5269744934	-0.7436426314	-0.5807943359	 0.070423
H	-1.4561283463	-0.5276850947	 1.6632186304	 0.101552
H	 0.0460280073	-1.4646911906	 1.804350258	 0.105307
178.3544	313.3086	340.1178	414.7092	480.3623	517.3103	603.9003	658.1152	766.0487	795.5956	811.4489	850.5767	859.0755	895.5904	901.7485	942.4694	960.3445	973.2156	991.7139	1038.9447	1047.9767	1076.5174	1095.0073	1143.697	1154.1714	1160.924	1199.8557	1238.563	1247.7809	1263.5826	1285.8465	1304.8552	1308.8553	1330.594	1339.7404	1364.1671	1384.2208	1413.3595	1471.7151	1487.2847	1504.4926	3005.3584	3055.6107	3057.8217	3070.1594	3075.5998	3087.7514	3099.5491	3110.032	3119.2699	3122.9603
C1C2CC3OC2C1CO3	C1[C@@H]2C[C@H]3O[C@@H]2[C@@H]1CO3	
InChI=1S/C7H10O2/c1-4-2-6-8-3-5(1)7(4)9-6/h4-7H,1-3H2	InChI=1S/C7H10O2/c1-4-2-6-8-3-5(1)7(4)9-6/h4-7H,1-3H2/t4-,5+,6-,7+/m1/s1
