19
gdb 184	3.6829818	1.2694474	1.2668468	2.8317	73.44	-0.24321	0.07454	0.31775	1065.7895	0.158345	-422.530093	-422.522547	-422.521603	-422.562573	29.046	
C	-0.3751356765	 1.0219710785	-0.001732619	-0.142792
O	 0.1146502166	-0.3309506886	 0.0154876618	-0.274291
C	 1.4857888704	 0.1194789728	-0.0094130045	-0.103969
C	 1.0534035578	 1.6058558843	-0.0295464895	 0.308556
C	 1.4850561227	 2.4153532793	-1.2720111839	-0.325759
C	 2.7276624043	 3.1486011138	-0.8111927026	 0.051313
O	 3.6367846815	 2.3153558416	-0.0738551234	-0.257329
C	 2.7459262403	 3.1737838736	 0.6568554391	 0.051311
C	 1.5154743789	 2.457305075	 1.1733071984	-0.325752
H	-0.9864808167	 1.2294524563	-0.8907240692	 0.094163
H	-0.964306806	 1.2602020627	 0.8944914212	 0.094166
H	 2.0413908623	-0.1982779741	 0.8810685679	 0.100717
H	 2.0190606926	-0.2288930476	-0.9020954305	 0.100711
H	 1.65447227	 1.7782236602	-2.1456516446	 0.114447
H	 0.7171017887	 3.1516975542	-1.5453883268	 0.103989
H	 3.1920339224	 3.9170097653	-1.4234801502	 0.096041
H	 3.2250529193	 3.9625406828	 1.2306927729	 0.09604
H	 1.7068249836	 1.8504458084	 2.0638066647	 0.114449
H	 0.7542418279	 3.2029239215	 1.4402710682	 0.103988
60.7907	106.588	243.5515	324.8726	371.4258	392.9555	420.093	500.9898	666.2113	776.1069	812.4177	860.2953	861.1586	881.2288	907.7368	933.2864	956.7946	983.9825	989.4446	1005.5772	1032.2522	1040.7305	1097.0144	1130.8653	1152.3472	1160.6907	1162.3666	1179.0331	1243.9868	1254.6826	1282.2336	1298.836	1313.4993	1335.7709	1339.1774	1389.1404	1439.1743	1473.7754	1483.348	1514.6273	1538.3303	2992.4832	3018.5052	3020.2531	3025.8311	3034.6072	3060.9122	3080.4436	3080.6086	3145.8372	3158.2501
C1OCC11CC2OC2C1	C1OCC21C[C@@H]1O[C@@H]1C2	
InChI=1S/C7H10O2/c1-5-6(9-5)2-7(1)3-8-4-7/h5-6H,1-4H2	InChI=1S/C7H10O2/c1-5-6(9-5)2-7(1)3-8-4-7/h5-6H,1-4H2/t5-,6+
