19
gdb 360	4.5609468	0.9795889	0.9481108	1.8253	75.46	-0.24085	0.08202	0.32287	1284.9124	0.157472	-422.45745	-422.449634	-422.44869	-422.491223	29.009	
C	-1.1421815481	 3.2466907358	 1.5022559826	-0.085999
O	-2.5532036411	 2.9787165099	 1.6207940139	-0.271146
C	-2.3414294921	 1.5581423254	 1.5027522294	-0.086073
C	-0.812192185	 1.742124192	 1.3465298963	-0.069593
C	-0.2116283178	 1.3154607196	 0.0288553428	 0.017219
C	 1.3374585743	 1.3135027029	-0.1375968116	 0.03246
C	 1.2048093654	 0.3118044897	-1.3078146646	-0.223328
C	 0.3055715862	-0.1449713027	-0.1360067935	 0.032377
O	 1.4189197684	 0.1625384915	 0.7948393061	-0.31289
H	-0.9147560295	 3.874477767	 0.6294877238	 0.093475
H	-0.7387593635	 3.7321952439	 2.3996705295	 0.101109
H	-2.666703292	 1.0176759109	 2.4004774682	 0.10109
H	-2.8594980503	 1.1362541873	 0.6302981458	 0.093476
H	-0.2255505656	 1.3258067462	 2.165373701	 0.098989
H	-0.7711443546	 1.7104206241	-0.8270353799	 0.075154
H	 2.052227701	 2.1247727959	 0.0051582049	 0.096544
H	 0.7252559535	 0.6501105446	-2.2296436601	 0.098403
H	 2.0833299118	-0.3099552875	-1.4799787652	 0.112195
H	-0.2214854707	-1.0887551763	 0.0086102505	 0.09654
37.0624	69.3463	153.1958	215.6156	320.5997	423.9787	499.9557	627.6376	757.8553	776.181	829.1212	860.7916	874.6641	887.5987	896.7115	911.2922	941.7333	1001.7504	1017.1069	1036.529	1043.3678	1047.1735	1089.9317	1128.2064	1141.4317	1141.4976	1156.2078	1165.0073	1193.9377	1201.013	1212.4957	1258.8244	1278.971	1282.1962	1302.2189	1312.3836	1383.0881	1427.5456	1489.9853	1514.1207	1539.8368	2995.3216	3006.3426	3041.4555	3043.224	3045.5233	3067.6906	3110.7322	3116.2652	3117.3879	3154.4355
C1OCC1C1C2CC1O2	C1OCC1[C@H]1[C@@H]2C[C@H]1O2	
InChI=1S/C7H10O2/c1-5-7(6(1)9-5)4-2-8-3-4/h4-7H,1-3H2	InChI=1S/C7H10O2/c1-5-7(6(1)9-5)4-2-8-3-4/h4-7H,1-3H2/t5-,6+,7-
