19
gdb 137	3.5072191	1.493033	1.2015332	1.9417	73.9	-0.25043	0.08232	0.33275	1047.1573	0.159852	-422.517518	-422.510378	-422.509434	-422.549137	28.323	
C	 2.2512811743	 1.1926253424	 0.0655661027	-0.296111
C	 2.7165095395	-0.2127411025	 0.3051733363	-0.044407
C	 1.3086880444	 0.0563009968	-0.2271228758	-0.091206
C	 1.7034435864	-0.5231030963	-1.6023152462	 0.135518
O	 0.9125480335	-1.5428584445	-2.1668732681	-0.25841
C	 1.144374452	-2.8370580285	-1.6690766698	 0.006515
O	 2.4900459347	-3.1991791361	-1.7452210881	-0.221309
C	 3.2459953142	-2.4478803072	-0.8064452412	-0.102673
C	 3.1027961118	-0.9251206544	-1.0031142384	-0.082214
H	 2.031191739	 1.768646756	 0.9585895135	 0.115485
H	 2.6635306118	 1.7818436101	-0.7520183574	 0.106876
H	 3.0229522556	-0.5502005223	 1.2893934666	 0.085966
H	 0.342978397	-0.046307464	 0.25230062	 0.091045
H	 1.7613484386	 0.2452779384	-2.3799572759	 0.086372
H	 0.7896265681	-2.9235355453	-0.6242896156	 0.076097
H	 0.5802991205	-3.5151799974	-2.312626588	 0.116298
H	 2.9254639514	-2.7252083468	 0.2112461023	 0.090829
H	 4.2854248789	-2.7616635421	-0.9259355687	 0.113712
H	 3.9675299584	-0.523918746	-1.5414080082	 0.071617
103.9801	140.467	307.2316	329.7144	385.465	432.7925	516.8699	530.4581	684.0511	751.8027	801.9021	825.9837	833.4091	917.2423	937.5223	957.2547	981.9927	1004.4868	1017.0353	1040.4459	1061.5926	1075.036	1083.2001	1093.0826	1108.4885	1173.8475	1199.8079	1213.8558	1234.9566	1251.5374	1286.0435	1294.5191	1319.8779	1337.9899	1360.6559	1396.924	1418.8174	1450.0782	1491.1703	1497.024	1517.4298	2921.6408	2968.6863	3040.6524	3053.2387	3098.2375	3098.9625	3109.9016	3162.6189	3187.1907	3199.3066
C1C2C1C1OCOCC21	C1[C@H]2[C@@H]1[C@@H]1OCOC[C@H]21	
InChI=1S/C7H10O2/c1-4-5(1)7-6(4)2-8-3-9-7/h4-7H,1-3H2	InChI=1S/C7H10O2/c1-4-5(1)7-6(4)2-8-3-9-7/h4-7H,1-3H2/t4-,5+,6+,7-/m0/s1
