19
gdb 157	4.593469	1.0011896	0.8933976	2.7659	75.09	-0.24706	0.07666	0.32372	1309.8318	0.157089	-422.491423	-422.483348	-422.482404	-422.525065	29.778	
C	-0.1595722945	-1.9841059069	-4.0872494745	-0.061012
C	-1.2941903601	-1.4276929679	-3.2038295135	-0.299833
C	-0.1837061427	-1.2527230271	-2.1413540978	 0.145563
O	 0.8301902144	-1.6974579046	-3.077103788	-0.298808
C	 0.0954284715	 0.1388779017	-1.6190090039	-0.025662
C	-0.8408748278	 0.5642686712	-0.4259816851	-0.28637
C	 0.4030938138	 0.6049702423	 0.4723813505	 0.038171
O	 1.3125991206	 1.5441229234	-0.1095875357	-0.249019
C	 1.2840724897	 0.2167036856	-0.6419293522	 0.021937
H	-0.2221737647	-3.0582754539	-4.3030864773	 0.101894
H	 0.041437071	-1.447601931	-5.0216905164	 0.106671
H	-1.7285207327	-0.4891269309	-3.5539777039	 0.112433
H	-2.0952547359	-2.1239608646	-2.9528880777	 0.110559
H	-0.2635358494	-1.9597695281	-1.3014297076	 0.068415
H	 0.1630744798	 0.8478942773	-2.4492556791	 0.080895
H	-1.3711289143	 1.5133940928	-0.5283956367	 0.112371
H	-1.5493458555	-0.2230623636	-0.152219142	 0.105891
H	 0.4845240759	 0.4336786939	 1.5394604141	 0.102806
H	 2.2163925309	-0.3347422095	-0.6659182531	 0.113099
64.5363	75.0722	132.6528	162.9927	320.3106	381.7401	433.8827	497.1475	748.9706	767.149	810.4681	840.3167	851.0219	863.2916	914.7429	927.1077	947.5355	967.9671	989.648	1001.9392	1029.1866	1042.8389	1054.4389	1100.3096	1134.2083	1163.9248	1193.4718	1212.603	1222.0075	1228.5158	1240.47	1256.8191	1270.1693	1287.1753	1296.6982	1359.7449	1384.5891	1411.3574	1468.7593	1490.3603	1531.8952	2980.7233	3015.8708	3057.4228	3060.0519	3070.0397	3078.5304	3119.7146	3134.5665	3181.9463	3198.6853
C1CC(O1)C1CC2OC12	C1C[C@@H](O1)[C@H]1C[C@@H]2O[C@H]12	
InChI=1S/C7H10O2/c1-2-8-5(1)4-3-6-7(4)9-6/h4-7H,1-3H2	InChI=1S/C7H10O2/c1-2-8-5(1)4-3-6-7(4)9-6/h4-7H,1-3H2/t4-,5-,6+,7-/m1/s1
