19
gdb 241	3.0898733	1.8867562	1.6097793	2.2343	73.41	-0.24614	0.08581	0.33194999999999997	901.1401	0.161361	-422.554017	-422.547672	-422.546728	-422.584321	26.883	
C	 0.4146880741	-0.1673718641	 0.1341981752	-0.240583
C	-0.0853809157	 0.2680016682	 1.5317737723	 0.079947
O	 0.3318663888	 1.6491586996	 1.5762397228	-0.290899
C	-0.1922586748	 2.1487050212	 0.3335470315	 0.230383
O	-1.2132114094	 3.0856528298	 0.5489339562	-0.272394
C	-2.1029125167	 2.7037248312	 1.5989042942	-0.070329
C	-2.6038199909	 1.2582831981	 1.4509971425	-0.264722
C	-1.5203332625	 0.3239699668	 0.9218066522	-0.002172
C	-0.690531561	 0.8357064727	-0.3008246592	-0.109089
H	 1.455715528	 0.0657846313	-0.1001784287	 0.102241
H	 0.1725738487	-1.1993680877	-0.128222617	 0.101847
H	 0.1709388315	-0.2250830773	 2.4681727706	 0.079335
H	 0.5908041113	 2.6718540828	-0.2216751914	 0.085843
H	-1.5988238727	 2.8311997887	 2.5626307185	 0.111493
H	-2.9333329392	 3.412546665	 1.5487657736	 0.103209
H	-2.9924595149	 0.9087221635	 2.4149881498	 0.100872
H	-3.4407646801	 1.2279014273	 0.7423031186	 0.105381
H	-1.9043814583	-0.6842501754	 0.7476426984	 0.075122
H	-1.0930274165	 0.9008843483	-1.31037016	 0.074515
213.7438	265.2771	345.9027	414.2729	478.3766	482.0083	600.4712	679.8748	713.9108	806.6465	827.0007	853.0031	862.1912	883.3782	916.3792	927.8999	963.6075	981.1321	1021.47	1035.0727	1048.5447	1075.5894	1101.9205	1112.5261	1117.8197	1136.4603	1182.4229	1224.5068	1249.4006	1262.2636	1273.4089	1285.0317	1295.5421	1345.8855	1353.9116	1375.8331	1402.4153	1425.764	1478.7346	1493.4716	1504.106	3024.3832	3043.2435	3065.1709	3066.4248	3077.6043	3080.7672	3101.059	3131.9338	3133.1336	3137.6015
C1C2OC3OCCC2C13	C1[C@H]2O[C@@H]3OCC[C@H]2[C@H]13	
InChI=1S/C7H10O2/c1-2-8-7-5-3-6(9-7)4(1)5/h4-7H,1-3H2	InChI=1S/C7H10O2/c1-2-8-7-5-3-6(9-7)4(1)5/h4-7H,1-3H2/t4-,5-,6+,7-/m0/s1
