19
gdb 274	3.4723281	1.3306597	1.2036386	1.3984	73.67	-0.23643	0.06849	0.30491999999999997	1079.3543	0.158289	-422.51522	-422.507583	-422.506639	-422.54787	29.287	
C	-0.9592120258	 3.7539548581	 0.9857703294	-0.346318
C	-2.0855782578	 2.8870365448	 0.4919426626	 0.121012
O	-2.1741123411	 2.6133916061	-0.8826173663	-0.254914
C	-0.9000960092	 2.1447786159	-1.3140238273	-0.171855
C	-0.2045903408	 1.5149998939	-0.0886395616	 0.279653
C	 1.3340888005	 1.3751783695	-0.1630096653	-0.125095
O	 1.2577320859	-0.0625918121	-0.1147863332	-0.271587
C	-0.177244163	-0.0331254313	-0.0004146501	-0.124534
C	-0.860177643	 2.235710567	 1.0700300029	-0.158311
H	-0.3471027845	 4.2917691111	 0.2697285541	 0.11979
H	-1.1169462187	 4.2815073194	 1.920221823	 0.117873
H	-3.0580246308	 2.9002314566	 0.9687345664	 0.105313
H	-1.0576538155	 1.4394396782	-2.1350563636	 0.117076
H	-0.2930691321	 2.9777617769	-1.7003676039	 0.097827
H	 1.7987090855	 1.7312537557	-1.0929228378	 0.096754
H	 1.8839620887	 1.791356368	 0.6906110267	 0.103096
H	-0.6699640556	-0.5669244993	-0.8232829074	 0.101281
H	-0.5229617093	-0.4539884208	 0.9530860882	 0.098697
H	-0.8559488132	 1.7599583823	 2.0438469131	 0.094242
54.3234	118.259	208.5204	302.3121	354.9649	384.822	451.2646	491.6986	698.7686	733.7363	794.7743	828.5094	862.7179	887.6098	936.4278	958.2385	960.4952	991.5732	999.2264	1026.0792	1040.5975	1044.7632	1060.8848	1097.6546	1139.4696	1152.0823	1158.7091	1162.0206	1185.4094	1201.1655	1245.8062	1263.9592	1308.2935	1323.6659	1373.4666	1388.7076	1399.748	1475.2893	1510.4168	1521.9988	1537.5358	2983.2728	2994.9073	3006.9271	3044.6915	3045.6693	3082.0782	3132.9422	3173.8173	3190.9934	3219.1604
C1C2OCC3(COC3)C12	C1[C@H]2OCC3(COC3)[C@@H]12	
InChI=1S/C7H10O2/c1-5-6(1)9-4-7(5)2-8-3-7/h5-6H,1-4H2	InChI=1S/C7H10O2/c1-5-6(1)9-4-7(5)2-8-3-7/h5-6H,1-4H2/t5-,6+/m0/s1
