19
gdb 153	3.1859738	1.6158905	1.3145942	2.0684	74.02	-0.23141	0.0646	0.29601	997.8177	0.159259	-422.478597	-422.471484	-422.470539	-422.510004	28.379	
C	-2.2468390605	 0.2116325281	-0.8016757918	-0.059984
C	-1.3312861411	 0.5590859698	 0.3805481353	-0.294149
C	-0.1145292647	 1.444832533	 0.0721563441	 0.020729
C	 1.2626386094	 0.7902740482	-0.2060198563	 0.015262
O	 1.717308402	 2.066279139	-0.7950753805	-0.30952
C	 0.3745731906	 1.8191075024	-1.3666303208	 0.025029
C	 0.7954811701	 0.3482506065	-1.6241049365	 0.004641
C	-0.3026529058	-0.6873961865	-1.9077338405	-0.140248
O	-1.5818937095	-0.0867341252	-2.0187268848	-0.243738
H	-2.8937182908	-0.6310964837	-0.5086079807	 0.091334
H	-2.9023699803	 1.0584671644	-1.0341712694	 0.109577
H	-1.9567180202	 1.0462749238	 1.1361797934	 0.108849
H	-0.9786664456	-0.3662177813	 0.8513590511	 0.110416
H	-0.0224619884	 2.2944925065	 0.7517203691	 0.084933
H	 1.9381792037	 0.2873793081	 0.4888974343	 0.08767
H	-0.0187716809	 2.5572147447	-2.0649112836	 0.096673
H	 1.6392093676	 0.2677147496	-2.3133503585	 0.084034
H	-0.1174391067	-1.1392552635	-2.8865417446	 0.114475
H	-0.2989146288	-1.5078981838	-1.1740146392	 0.094015
120.7506	188.3951	243.7608	325.3847	355.3732	439.9314	531.0491	628.7101	677.6179	721.9194	765.6241	820.2598	862.0631	882.1979	896.295	924.7916	941.4743	972.7482	1013.0887	1049.0034	1061.4343	1093.697	1117.3658	1143.3374	1161.1109	1174.283	1202.4352	1209.9103	1250.1819	1258.3223	1274.5065	1288.9864	1311.784	1335.0169	1376.0846	1385.9534	1408.373	1424.9688	1485.541	1501.6891	1517.386	2972.0427	2986.5362	3032.688	3051.8318	3071.6082	3073.6508	3090.6544	3093.4074	3101.0141	3126.0522
C1CC2C3OC2C3CO1	C1C[C@H]2[C@@H]3O[C@H]2[C@@H]3CO1	
InChI=1S/C7H10O2/c1-2-8-3-5-6-4(1)7(5)9-6/h4-7H,1-3H2	InChI=1S/C7H10O2/c1-2-8-3-5-6-4(1)7(5)9-6/h4-7H,1-3H2/t4-,5+,6-,7+
