19
gdb 232	2.5778629	2.1263624	1.520078	1.8858	72.55	-0.24824	0.0634	0.31164	914.6425	0.160595	-422.528851	-422.522278	-422.521334	-422.559422	27.52	
C	-2.2380595063	-1.370689873	-2.8854208345	-0.281237
C	-2.9811630215	-1.849715781	-1.6121072842	-0.020856
C	-2.6734581494	-0.9961677203	-0.3552210269	-0.281238
C	-1.4452584867	-1.9129158865	-0.0301386331	 0.121202
O	-0.1448490353	-1.3557014188	 0.0061203941	-0.247697
C	 0.256813564	-0.786508271	-1.2122838602	 0.003267
O	 0.2489849081	-1.6944613975	-2.2825057112	-0.247697
C	-1.017045895	-2.2812490102	-2.5185590612	 0.121201
C	-1.7675114582	-2.7951579437	-1.2633206209	-0.08926
H	-2.7109645662	-1.6860813619	-3.818599938	 0.105498
H	-2.0446116893	-0.2962362314	-2.9515150947	 0.103105
H	-4.0022468243	-2.2082809846	-1.7347431713	 0.068381
H	-2.4604806206	 0.061489674	-0.5347863958	 0.103106
H	-3.4404353529	-1.0586000595	 0.4205253451	 0.105497
H	-1.5553630993	-2.434159483	 0.9222329397	 0.088626
H	-0.3708496129	 0.0891437178	-1.449904098	 0.079137
H	 1.2928416127	-0.4685080525	-1.0810693075	 0.117727
H	-0.8344836687	-3.0542251782	-3.2668959871	 0.088626
H	-1.825984918	-3.8731009188	-1.1138239844	 0.062613
173.5806	262.9977	359.5221	375.9229	446.0193	497.3992	521.6707	597.1473	709.1039	732.8271	781.5084	788.5386	869.0448	900.9321	935.0263	935.6325	977.5966	1005.1115	1005.5682	1036.8057	1058.7506	1066.4023	1109.3399	1124.9274	1150.4043	1198.3517	1210.9658	1214.2935	1233.3527	1255.9654	1278.6799	1289.4053	1305.5296	1311.1321	1317.2207	1386.0693	1401.243	1447.6421	1467.4488	1477.6309	1517.9223	2959.4447	3056.0008	3057.2975	3084.8353	3086.8743	3105.6272	3108.2493	3108.4574	3112.3162	3123.933
C1C2CC3OCOC1C23	C1[C@@H]2C[C@@H]3OCO[C@H]1[C@H]23	
InChI=1S/C7H10O2/c1-4-2-6-7(4)5(1)8-3-9-6/h4-7H,1-3H2	InChI=1S/C7H10O2/c1-4-2-6-7(4)5(1)8-3-9-6/h4-7H,1-3H2/t4-,5-,6+,7+
