19
gdb 173	2.8997339	1.9363919	1.9153463	2.693	72.42	-0.23516	0.07394	0.30910000000000004	852.6036	0.161708	-422.532891	-422.526883	-422.525939	-422.562778	26.342	
C	-0.0468339497	 1.7209990367	 0.9853496782	-0.244403
C	 0.0452556446	 0.1770772951	 1.0880836677	 0.071449
O	 1.4755666571	 0.3154038653	 0.8277850604	-0.266832
C	 1.1287160747	 1.4686290451	 0.0093416663	 0.058844
C	 0.6270806635	 0.9087028892	-1.3803989834	 0.093195
C	-0.845888375	 0.5036776294	-1.2428633682	-0.23493
C	-0.5840618992	-0.5548481218	-0.1502455166	-0.07428
C	 0.5307009252	-1.3436647121	-0.8751153804	-0.058289
O	 1.254924895	-0.3488342588	-1.6338731417	-0.262708
H	-0.9598023004	 2.2219113455	 0.6652942362	 0.099444
H	 0.3240594109	 2.1732183328	 1.9057981558	 0.113299
H	-0.1541530985	-0.3230593798	 2.0384289268	 0.078901
H	 1.9505874066	 2.1825291076	-0.0735188964	 0.080565
H	 0.8643983699	 1.5815141583	-2.2071762578	 0.072882
H	-1.5352932026	 1.2979723792	-0.9647643949	 0.100329
H	-1.2026102915	 0.0490761032	-2.1715981334	 0.102204
H	-1.4456500519	-1.1687222546	 0.1193362497	 0.068799
H	 1.2197778723	-1.8471463908	-0.19373945	 0.113518
H	 0.101860399	-2.0777380696	-1.5695412784	 0.088012
269.0158	367.3874	379.1464	480.8753	507.0952	517.4464	571.2055	734.6182	756.9368	785.2542	836.6087	872.0531	890.8654	896.7785	910.5815	926.4018	939.3045	947.9071	977.2862	1009.557	1035.2962	1068.6721	1080.2477	1087.0474	1119.2785	1137.4993	1181.555	1206.0107	1234.3613	1244.3065	1280.6682	1292.4534	1310.6255	1314.8879	1319.8466	1336.5369	1357.2274	1384.0505	1485.4928	1510.9912	1532.6089	3018.4004	3066.8807	3081.115	3085.7455	3090.4333	3097.8842	3100.0348	3104.3271	3137.1043	3155.269
C1C2OC1C1CC2CO1	C1[C@@H]2O[C@H]1[C@@H]1C[C@H]2CO1	
InChI=1S/C7H10O2/c1-4-3-8-6(1)7-2-5(4)9-7/h4-7H,1-3H2	InChI=1S/C7H10O2/c1-4-3-8-6(1)7-2-5(4)9-7/h4-7H,1-3H2/t4-,5-,6-,7+/m0/s1
