19
gdb 293	2.6740594	2.0639213	1.4864704	1.5521	72.29	-0.24243	0.06546	0.30789	920.0621	0.160804	-422.554986	-422.548299	-422.547355	-422.58615	27.026	
C	 1.1254966465	-0.0249774289	-2.4306034667	-0.276884
C	 0.0243149855	 1.0730738397	-2.5691013419	-0.042824
C	-1.4028892235	 0.7103456571	-2.1140326631	-0.098149
O	-1.5861610305	 1.2518830096	-0.8036260907	-0.261257
C	-0.3213304009	 1.5101353593	-0.2165126921	 0.075348
C	 0.3065519645	 0.2640539352	 0.4738616225	-0.115972
O	 1.6580637313	 0.1697059273	 0.0454837819	-0.255804
C	 1.7616882357	 0.755817515	-1.236982784	 0.11189
C	 0.6538724818	 1.8297195613	-1.3644352678	-0.077164
H	 0.7614249139	-1.0236783386	-2.172494656	 0.105953
H	 1.7842418599	-0.1112022733	-3.297636897	 0.104812
H	 0.0338975601	 1.5977072326	-3.5246835361	 0.078048
H	-2.1780320331	 1.1438168788	-2.7547176337	 0.106464
H	-1.5468883506	-0.3802234081	-2.1034408711	 0.094591
H	-0.4600348881	 2.3318400101	 0.4893171929	 0.089011
H	 0.3090450189	 0.3315961567	 1.5649905248	 0.109606
H	-0.2736634617	-0.6264250559	 0.1888142393	 0.099199
H	 2.8016042966	 1.0544985289	-1.3786593481	 0.081844
H	 0.9202320036	 2.8805617833	-1.464195183	 0.071287
96.7603	160.9467	359.8805	395.8998	406.6514	591.931	602.7789	687.8218	700.4149	750.1285	829.0517	837.9185	887.9194	918.3037	929.3025	942.5019	960.9018	992.3085	1012.6425	1036.7544	1051.5516	1076.0705	1109.2549	1143.5946	1148.2406	1187.1749	1217.294	1233.7735	1237.1146	1248.4331	1270.1786	1279.8258	1296.3874	1314.8985	1335.1019	1358.6309	1382.8035	1397.6029	1474.4438	1516.1175	1527.4014	2991.2502	2996.2653	3058.5847	3060.5825	3079.2871	3093.9451	3095.756	3101.4574	3118.1399	3128.4244
C1C2COC3COC1C23	C1[C@H]2CO[C@H]3CO[C@@H]1[C@@H]23	
InChI=1S/C7H10O2/c1-4-2-8-6-3-9-5(1)7(4)6/h4-7H,1-3H2	InChI=1S/C7H10O2/c1-4-2-8-6-3-9-5(1)7(4)6/h4-7H,1-3H2/t4-,5-,6-,7+/m0/s1
