19
gdb 283	2.527587	1.7988546	1.2906087	0.2296	74.07	-0.25797	0.08044	0.33841	1016.1823	0.159083	-422.528925	-422.521405	-422.520461	-422.561009	29.351	
C	-0.4375958881	 1.3231253961	-0.7604439721	-0.247732
C	-0.3454462503	 0.3440044559	-1.9336371087	-0.247662
C	 0.7657643362	-0.6771346585	-1.8403207897	 0.058186
O	 1.2633677148	-1.0114719875	-0.5360304728	-0.260738
C	 2.1669108694	-0.421239646	-1.4794093306	 0.068618
C	 2.8483999956	 0.8847903123	-1.1343951783	-0.282149
C	 2.0870155661	 2.1681938926	-0.8847272194	 0.068601
O	 1.2964057253	 2.7309737119	-1.939665093	-0.260708
C	 0.6433598603	 2.3792239378	-0.7107174491	 0.058154
H	-1.4027582972	 1.839010183	-0.8253129494	 0.102183
H	-0.4363446419	 0.7718791971	 0.1859334084	 0.127325
H	-1.2939521548	-0.2024916286	-1.9934724578	 0.102193
H	-0.2388521727	 0.896813558	-2.873072554	 0.127302
H	 0.602200196	-1.5516584535	-2.4748829844	 0.085004
H	 2.88869372	-1.1438634586	-1.8701677362	 0.088371
H	 3.4614299418	 0.6960915444	-0.2418613245	 0.119842
H	 3.5670359872	 1.0944156178	-1.9391712784	 0.119837
H	 2.7284806115	 2.9126004893	-0.4049054169	 0.088365
H	 0.3707821007	 3.2472495864	-0.1053821333	 0.085008
66.8814	209.807	244.7601	294.1579	343.8256	353.8279	456.3976	521.5196	628.5216	694.8486	721.2937	777.7331	802.5744	816.5673	870.9973	908.4169	927.787	950.5437	1025.2074	1036.7344	1066.7848	1075.6654	1126.7993	1145.3908	1163.9767	1171.7659	1237.5185	1279.8009	1290.0201	1316.3362	1322.1455	1381.314	1388.5581	1397.9052	1417.039	1430.9536	1457.3095	1466.3977	1480.0577	1505.8909	1516.5445	3009.3017	3030.4912	3040.755	3041.2152	3061.9485	3064.2015	3075.6068	3079.1756	3082.7864	3087.9607
C1CC2OC2CC2OC12	C1C[C@@H]2O[C@@H]2C[C@H]2O[C@@H]12	
InChI=1S/C7H10O2/c1-2-5-7(9-5)3-6-4(1)8-6/h4-7H,1-3H2	InChI=1S/C7H10O2/c1-2-5-7(9-5)3-6-4(1)8-6/h4-7H,1-3H2/t4-,5-,6+,7+/m0/s1
