19
gdb 116	2.7373109	1.8307674	1.5097636	0.7735	73.89	-0.21839	0.08376	0.30215000000000003	952.335	0.158489	-422.506864	-422.499582	-422.498638	-422.538126	29.609	
C	 0.9152758277	 1.0404615453	-0.0010632542	-0.397967
C	 0.9180151584	 0.5346680181	 1.4302653212	 0.3386
C	 1.4773055529	 1.5814258825	 2.3999203551	-0.295096
C	 0.34935943	 2.5701734669	 1.9075779392	-0.286765
C	-0.1597434929	 1.4717032405	 0.9721240269	 0.352534
O	-1.4958650375	 1.1047576454	 0.8768464478	-0.296689
C	-1.6546821971	-0.3148796606	 0.9894913743	-0.098451
C	-0.7320831478	-0.9444419313	 2.0382476518	-0.10625
O	 0.6543425115	-0.8014146097	 1.7055293396	-0.292529
H	 1.6676128866	 1.742566101	-0.3530048457	 0.103341
H	 0.6157295105	 0.2905257296	-0.7241978588	 0.119237
H	 1.3420773537	 1.3010805866	 3.4467590688	 0.110397
H	 2.5166182724	 1.8860649528	 2.2437934883	 0.100409
H	-0.366891511	 2.7985816293	 2.6991721132	 0.111508
H	 0.6727408492	 3.5012924925	 1.433349723	 0.100506
H	-2.6994259381	-0.4836259182	 1.2665142779	 0.115823
H	-1.4768165992	-0.7955636075	 0.0155191608	 0.105438
H	-0.936068692	-0.4967407484	 3.0228810519	 0.101353
H	-0.9274661272	-2.018752325	 2.0980235688	 0.1146
135.9396	197.1332	292.277	350.9961	386.4867	426.7897	480.0711	503.7498	543.9947	632.6265	735.0125	739.5727	777.4852	866.3089	890.7021	900.1472	914.5719	957.8013	963.3345	992.37	1045.15	1070.8107	1102.0262	1117.4245	1120.191	1161.9916	1199.16	1222.2203	1233.3338	1262.2996	1274.9199	1296.798	1312.5326	1376.2665	1399.8689	1421.1542	1474.1096	1474.467	1490.1657	1498.4469	1514.4416	2988.5981	2999.6371	3050.7283	3059.2503	3089.2824	3096.7633	3106.7888	3108.7531	3125.9742	3218.4959
C1C23CCC12OCCO3	C1[C@@]23CC[C@@]12OCCO3	
InChI=1S/C7H10O2/c1-2-7-5-6(1,7)8-3-4-9-7/h1-5H2	InChI=1S/C7H10O2/c1-2-7-5-6(1,7)8-3-4-9-7/h1-5H2/t6-,7+
