19
gdb 141	2.483709	2.1388352	1.6656802	1.9318	72.86	-0.24083	0.07624	0.31706999999999996	896.3168	0.161037	-422.557347	-422.550715	-422.549771	-422.587977	27.592	
C	 2.2420263347	-0.6233075955	-1.0148575672	-0.257443
C	 1.1055240331	 0.375341418	-0.901559604	-0.108149
C	 1.0421106673	 1.2046661304	 0.3744986324	-0.066086
C	 2.2503614616	 1.4233745968	 1.2784885784	-0.251077
C	 2.7180485612	 0.1917965745	 2.0614015755	-0.069754
O	 3.1477649795	-0.8997349047	 1.26029618	-0.263711
C	 2.199515294	-1.3866870476	 0.33138462	 0.173298
O	 0.8725926386	-1.269870028	 0.809044248	-0.248046
C	 0.2908015556	-0.1041221674	 0.26593401	 0.078658
H	 2.0492895319	-1.3122985533	-1.8437487404	 0.107285
H	 3.2307553208	-0.1816845438	-1.159980218	 0.114986
H	 0.6496246716	 0.759002181	-1.8065857949	 0.087713
H	 0.4002813003	 2.0772019907	 0.2817229075	 0.086997
H	 3.086943017	 1.825069462	 0.6923860542	 0.106451
H	 1.9963374662	 2.1901322071	 2.0205099752	 0.103025
H	 3.5901246071	 0.4527836394	 2.6679667669	 0.103256
H	 1.918626605	-0.1326927909	 2.7387811017	 0.108444
H	 2.4244853411	-2.4514589057	 0.2265924332	 0.094579
H	-0.7911718166	-0.1455435831	 0.2961972813	 0.099575
163.8077	259.9978	303.2206	404.4736	438.4366	455.1888	571.4948	667.6773	696.8318	730.1082	767.4805	798.4671	818.9771	860.4161	914.1018	929.8844	985.1017	997.1776	1017.5863	1037.359	1056.5605	1075.5028	1101.9527	1112.9204	1117.5204	1151.4798	1194.4285	1209.0249	1256.3489	1282.1234	1299.1046	1311.1294	1349.9785	1366.652	1374.8421	1397.181	1421.9824	1432.3027	1477.1469	1491.1041	1498.8219	3019.3946	3027.8422	3053.0901	3060.6897	3078.8954	3089.5474	3109.4519	3135.8217	3173.8425	3189.9394
C1C2C3CCOC1OC23	C1[C@@H]2[C@@H]3CCO[C@H]1O[C@H]23	
InChI=1S/C7H10O2/c1-2-8-6-3-5-4(1)7(5)9-6/h4-7H,1-3H2	InChI=1S/C7H10O2/c1-2-8-6-3-5-4(1)7(5)9-6/h4-7H,1-3H2/t4-,5+,6-,7-/m0/s1
