19
gdb 386	3.2223535	1.432382	1.3730491	3.0625	74.11	-0.24259	0.07047	0.31306	1023.9297	0.158324	-422.531834	-422.524358	-422.523414	-422.56387	29.227	
C	 0.5963616115	 0.8695290919	-0.8101055292	-0.261382
O	 0.0401555347	-0.1106078161	 0.071616011	-0.268601
C	 1.442543685	 0.1801846502	 0.1641795994	 0.434148
C	 1.9260691292	 0.8037133654	 1.4698892147	-0.304059
C	 2.5293968595	-0.3741562706	 2.2482118916	-0.079716
C	 1.5287948512	-1.4031097018	 2.8184568543	-0.078446
O	 1.8445742418	-2.3620159178	 1.7863970488	-0.291008
C	 2.8324525785	-1.4887259029	 1.1996686086	 0.128489
C	 2.4072914051	-0.9511810507	-0.1695329249	-0.302611
H	 0.6361864263	 0.5835326525	-1.8609226396	 0.110937
H	 0.2844088505	 1.8976160288	-0.6260752396	 0.108946
H	 2.7010728799	 1.550877845	 1.2589456084	 0.104619
H	 1.1101443283	 1.305842019	 1.9969112225	 0.114523
H	 3.3346047447	-0.0852712556	 2.9237197966	 0.075563
H	 1.7723617483	-1.7875242212	 3.8167182091	 0.096881
H	 0.4735335861	-1.1064203561	 2.7923395511	 0.115658
H	 3.8253318718	-1.9512334962	 1.2003024616	 0.069748
H	 3.2822598636	-0.556301264	-0.7016245868	 0.099942
H	 1.940016564	-1.7213129998	-0.7873687074	 0.126369
93.2193	111.8709	279.1164	340.8441	355.6199	379.4498	400.9512	547.4098	633.3128	761.5662	783.6846	832.3456	848.1063	861.9479	889.6257	900.1397	925.4498	980.5585	1005.6289	1019.1603	1035.6537	1076.2998	1102.5709	1126.6214	1150.9329	1156.1559	1166.7419	1184.237	1236.1655	1251.4974	1272.1127	1293.2338	1296.8409	1344.0473	1351.7536	1373.5099	1432.3169	1452.5114	1473.1087	1522.4914	1536.908	3013.9563	3028.7253	3034.111	3048.8799	3060.9947	3074.4337	3097.3211	3108.847	3115.5167	3157.2201
C1OC11CC2COC2C1	C1O[C@@]21C[C@H]1CO[C@H]1C2	
InChI=1S/C7H10O2/c1-5-3-8-6(5)2-7(1)4-9-7/h5-6H,1-4H2	InChI=1S/C7H10O2/c1-5-3-8-6(5)2-7(1)4-9-7/h5-6H,1-4H2/t5-,6-,7-/m0/s1
