19
gdb 216	2.8323944	1.8693892	1.5456069	2.8823	72.48	-0.25072	0.07719	0.32791	926.3835	0.160587	-422.561484	-422.554695	-422.553751	-422.592487	27.676	
C	-0.065847833	-0.046707084	-0.2124046114	-0.232635
C	-0.5264190594	 1.1162581996	-1.1324191293	-0.225225
C	 0.8011038607	 1.8526152668	-1.4025549676	 0.032405
O	 1.7700665055	 0.8125938508	-1.4201122383	-0.249848
C	 1.486600899	 0.0469286596	-0.2448909515	 0.090845
C	 2.0788482589	 0.7715003784	 0.9759453301	-0.245379
C	 1.7188802423	 2.2511207493	 0.9513949197	 0.044176
O	 2.4573559959	 3.0707586606	 0.0341393151	-0.248517
C	 1.090907236	 2.8145275275	-0.2563710791	 0.050978
H	-0.4552539486	 0.049226603	 0.8044019056	 0.101701
H	-0.401638804	-1.0110514053	-0.5993258516	 0.109912
H	-0.9440568634	 0.7392483186	-2.0687181525	 0.109232
H	-1.2786299928	 1.7575633808	-0.6644808215	 0.101169
H	 0.8452351903	 2.3626671711	-2.3685493326	 0.085118
H	 1.9583037337	-0.929745584	-0.3766246896	 0.078705
H	 1.7090668748	 0.3139585151	 1.9007799102	 0.097141
H	 3.1697787097	 0.6736831885	 0.9768372963	 0.120498
H	 1.53903912	 2.7294535636	 1.9136772612	 0.091287
H	 0.4245157443	 3.6747389202	-0.1760990234	 0.088437
117.2983	219.432	300.7895	382.2752	413.4978	454.6428	569.9674	639.0084	744.0176	783.3427	802.0842	822.7613	836.5611	877.6632	893.5602	915.36	959.9781	983.2284	998.023	1019.027	1036.9177	1063.6748	1102.6495	1105.6067	1127.2975	1185.1762	1223.7045	1240.8393	1256.4454	1281.7288	1292.219	1316.5526	1323.1984	1343.2476	1362.0263	1373.7579	1399.3832	1461.7714	1469.7468	1486.8102	1507.4731	3037.833	3059.6413	3068.369	3077.0839	3081.499	3083.8616	3097.9887	3100.6135	3114.4855	3119.7234
C1CC2OC1CC1OC21	C1C[C@@H]2O[C@H]1C[C@H]1O[C@@H]21	
InChI=1S/C7H10O2/c1-2-5-7-6(9-7)3-4(1)8-5/h4-7H,1-3H2	InChI=1S/C7H10O2/c1-2-5-7-6(9-7)3-4(1)8-5/h4-7H,1-3H2/t4-,5+,6-,7+/m1/s1
