19
gdb 222	2.6997054	1.9629623	1.8503454	1.4329	72.48	-0.23917	0.07989	0.31906	868.0483	0.161594	-422.562617	-422.55633	-422.555386	-422.592879	26.602	
C	 0.3365223651	 3.1760318435	-1.1792810863	-0.057434
O	-0.7067826015	 2.6888062653	-0.3239219869	-0.279949
C	-0.4190981923	 1.4570091329	 0.2766935282	 0.11182
C	 0.0955173305	 0.2763543021	-0.590988004	 0.052541
C	 0.9745394099	 0.8368824315	-1.7149343277	-0.216991
C	 1.5142677718	 2.1962677382	-1.2083998276	-0.063064
C	 2.0214011609	 2.0370509266	 0.2453108803	-0.216991
C	 0.9420588037	 1.2469013697	 0.9941751298	 0.052536
O	 0.9527066175	-0.1252747351	 0.5128864918	-0.301077
H	-0.0822092128	 3.3169479002	-2.1852904377	 0.095212
H	 0.6534353035	 4.1602727007	-0.8076763505	 0.095207
H	-1.2746940654	 1.1905081934	 0.8968015619	 0.095337
H	-0.5851567541	-0.5216403863	-0.8981187532	 0.075204
H	 1.7799287915	 0.1246938775	-1.9205676973	 0.108009
H	 0.4000810093	 0.9753193965	-2.6383453526	 0.097768
H	 2.2930656293	 2.5922093184	-1.8667334004	 0.070892
H	 2.9628975985	 1.4808957266	 0.2945650919	 0.108009
H	 2.183944424	 3.0203988925	 0.7018868867	 0.097766
H	 1.0072040708	 1.3039983457	 2.0836422035	 0.075204
188.9945	304.123	384.3997	422.2116	428.4512	527.1793	595.7035	619.0701	725.1608	817.4657	834.5297	845.2522	883.8871	884.5438	921.4384	938.2741	964.4947	992.4239	1028.1095	1042.2786	1066.8087	1068.2414	1096.1298	1144.6159	1162.1643	1166.8784	1203.3939	1226.7536	1252.6678	1291.8673	1307.6462	1326.2669	1333.2485	1344.0388	1367.8143	1370.3382	1387.375	1421.7059	1471.0048	1482.468	1528.5787	2996.9379	3027.9103	3035.3475	3035.4154	3064.64	3078.0973	3080.3903	3085.84	3087.6868	3122.1407
C1OC2C3CC1CC2O3	C1O[C@H]2[C@H]3C[C@@H]1C[C@@H]2O3	
InChI=1S/C7H10O2/c1-4-2-6-7(8-3-4)5(1)9-6/h4-7H,1-3H2	InChI=1S/C7H10O2/c1-4-2-6-7(8-3-4)5(1)9-6/h4-7H,1-3H2/t4-,5-,6+,7+
