19
gdb 229	3.5715714	1.4813399	1.2022749	1.8401	74.	-0.24228	0.07986	0.32214	1048.6385	0.159238	-422.522004	-422.514819	-422.513874	-422.553648	28.623	
C	 2.308925855	 0.8100065115	-3.3862910098	-0.312878
C	 2.8752838818	 0.5323441856	-2.0084087856	-0.052781
C	 2.1644573414	-0.4326950829	-1.0646420643	-0.264679
C	 1.6129314344	 0.3579549234	 0.1274547846	 0.121304
O	 0.3888926107	-0.1799875001	 0.6839175859	-0.297261
C	-0.3649192617	 0.9877784628	 0.2854219292	-0.10003
C	 0.8846012097	 1.6526251609	-0.3058699278	 0.067523
O	 0.8154214771	 1.8277641156	-1.7090666923	-0.261162
C	 2.0946856572	 1.7978390569	-2.2823690089	 0.100281
H	 2.9964354675	 1.0788997391	-4.1806735807	 0.113679
H	 1.4463720498	 0.2331565657	-3.7022251893	 0.124499
H	 3.9498697327	 0.6242888419	-1.8879757424	 0.090116
H	 1.3186824628	-0.9120449911	-1.5649878484	 0.117834
H	 2.8349487885	-1.2296124785	-0.7324858882	 0.106371
H	 2.3709532108	 0.4921351081	 0.9089220385	 0.074457
H	-1.1355341747	 0.7581878042	-0.4592947242	 0.112228
H	-0.8194699339	 1.4948254403	 1.1441880092	 0.10261
H	 1.2161337684	 2.5753579215	 0.1864917012	 0.073005
H	 2.6014754328	 2.7617267352	-2.3136355468	 0.084886
95.4321	149.9975	300.4835	362.3734	380.5623	443.7882	458.2262	519.6962	693.2381	773.2258	794.3346	810.5336	826.3825	881.0105	902.7873	950.3354	971.5514	999.4213	1019.9653	1029.8226	1058.1818	1084.9285	1093.7319	1121.1247	1128.3507	1145.7285	1170.4514	1178.7168	1216.6536	1232.0913	1261.9625	1280.4461	1312.0367	1332.3599	1367.2773	1370.82	1385.5449	1412.0488	1473.3856	1493.3871	1513.7201	3014.7252	3023.0404	3034.7052	3061.1639	3076.6778	3104.7051	3105.6044	3134.2975	3157.4966	3224.2841
C1C2CC3OCC3OC12	C1[C@@H]2C[C@@H]3OC[C@@H]3O[C@H]12	
InChI=1S/C7H10O2/c1-4-2-6-7(3-8-6)9-5(1)4/h4-7H,1-3H2	InChI=1S/C7H10O2/c1-4-2-6-7(3-8-6)9-5(1)4/h4-7H,1-3H2/t4-,5-,6+,7+/m1/s1
