19
gdb 338	2.8675044	1.741756	1.3135615	1.2225	74.52	-0.23138	0.07392	0.3053	995.7549	0.15904	-422.492137	-422.484889	-422.483944	-422.523426	29.214	
C	 1.5688400388	 0.3543804791	 2.6259906982	-0.369098
C	 1.2752715948	 1.8159453209	 2.3972144809	 0.018908
O	 2.2468418582	 2.6210267043	 1.7666983089	-0.264219
C	 3.2559469934	 1.9654028854	 0.9828983914	-0.075125
C	 2.7532628212	 0.8647223631	-0.0286967523	-0.318674
C	 1.2469125883	 0.9069355826	 0.0574355491	 0.18634
O	 0.3722457536	-0.1729857916	-0.3646525269	-0.315771
C	-0.4512237272	 0.0507823758	 0.8214393594	-0.196699
C	 0.714923755	 0.7986780226	 1.4626991396	 0.252001
H	 2.5670674843	-0.0476518192	 2.4945048991	 0.118306
H	 1.0175764861	-0.1016989975	 3.4439017722	 0.114006
H	 0.7213136636	 2.3990548532	 3.1249980299	 0.10482
H	 3.7263675845	 2.7862931084	 0.4382680275	 0.121782
H	 4.0148372572	 1.5341805578	 1.6484068931	 0.107435
H	 3.1281465119	 1.0758998273	-1.0341111354	 0.107877
H	 3.1189160022	-0.1241108652	 0.2628531972	 0.115027
H	 0.8904973938	 1.8443038357	-0.4002883216	 0.078398
H	-1.3350095867	 0.6577184307	 0.5805998957	 0.10286
H	-0.7566082031	-0.8874458335	 1.2936549938	 0.111826
175.9542	191.0163	260.8487	292.892	356.4489	428.6033	447.7369	546.4102	586.3497	657.2013	784.6736	797.2232	848.4395	868.7487	888.9918	920.1895	944.8566	971.1093	1004.8341	1026.4115	1050.5148	1055.086	1084.165	1120.271	1145.3207	1154.7571	1162.0245	1208.0281	1224.4943	1268.3868	1289.954	1300.1836	1313.4154	1357.3738	1392.7536	1419.5361	1433.7977	1492.7645	1499.6143	1513.791	1519.8464	2963.9909	3006.6062	3016.2456	3056.5606	3085.0204	3092.7562	3113.0059	3125.9285	3170.3402	3209.1313
C1C2OCCC3OCC123	C1[C@H]2OCC[C@H]3OC[C@]123	
InChI=1S/C7H10O2/c1-2-8-6-3-7(6)4-9-5(1)7/h5-6H,1-4H2	InChI=1S/C7H10O2/c1-2-8-6-3-7(6)4-9-5(1)7/h5-6H,1-4H2/t5-,6-,7+/m1/s1
