19
gdb 198	2.553198	2.0490473	1.5913558	1.7828	73.4	-0.24697	0.06871	0.31567999999999996	908.0807	0.159682	-422.519535	-422.512738	-422.511794	-422.550209	28.33	
C	 2.4555692068	 2.1862548985	-0.9054373437	-0.274435
C	 1.1519292347	 2.550885064	-0.1843871869	 0.037174
O	 0.8385138394	 2.2724799403	 1.2014059694	-0.302645
C	 0.5366635197	 1.2831485171	 0.2209637383	 0.332572
C	 1.5984508722	 0.1959655429	 0.0637303355	-0.274653
C	 2.156034659	 0.7030158627	-1.2785069806	-0.027392
C	 0.9859451935	 0.5008471536	-2.289170338	-0.065902
O	-0.2990671889	 1.0346002218	-1.9322428004	-0.272011
C	-0.7151409496	 0.9574927871	-0.5519915832	-0.162817
H	 2.6009646885	 2.83943289	-1.7707051063	 0.105915
H	 3.3501251566	 2.2547313592	-0.2773578486	 0.113071
H	 0.541364948	 3.346939315	-0.6000198532	 0.104339
H	 2.3301223354	 0.241995011	 0.8736018104	 0.108777
H	 1.1809993133	-0.8134602939	 0.0135269861	 0.095153
H	 3.0278931024	 0.1608871219	-1.6640794039	 0.063791
H	 1.2128627202	 0.9659048468	-3.2542793774	 0.10977
H	 0.9000168737	-0.5851207665	-2.4564386708	 0.093836
H	-1.5074251191	 1.7009156547	-0.4329355716	 0.120784
H	-1.1188722659	-0.038766826	-0.3221926152	 0.094673
195.5957	251.5925	334.6512	364.7088	395.7587	448.9073	480.3036	566.7048	635.5874	751.0268	769.32	782.1768	838.3116	882.079	920.088	932.1943	947.3271	954.9277	987.5425	998.2101	1016.4265	1042.1619	1079.9835	1107.2158	1149.8363	1180.192	1202.9088	1224.7256	1250.6516	1287.8895	1291.0631	1322.06	1336.1773	1348.9206	1360.8853	1402.5473	1449.6939	1472.6183	1492.5568	1499.4356	1511.9028	2971.6979	3003.9308	3036.8819	3050.5736	3063.2633	3070.6703	3097.7347	3098.8725	3114.9668	3155.1722
C1C2OC22CC1COC2	C1[C@@H]2O[C@@]32C[C@H]1COC3	
InChI=1S/C7H10O2/c1-5-2-7(4-8-3-5)6(1)9-7/h5-6H,1-4H2	InChI=1S/C7H10O2/c1-5-2-7(4-8-3-5)6(1)9-7/h5-6H,1-4H2/t5-,6-,7-/m0/s1
