19
gdb 279	2.5053354	1.9956511	1.5007282	3.1556	73.36	-0.24653	0.06754	0.31407	942.1943	0.159739	-422.526575	-422.519578	-422.518634	-422.557665	28.332	
C	-0.402146965	-0.1291574327	-2.94318152	-0.29026
C	-1.0253907794	-1.4365337226	-2.3945075065	 0.109344
C	-2.3591042354	-1.9000050561	-2.9824148395	-0.209149
C	-3.2658657111	-0.8170109424	-3.599390624	-0.26073
C	-3.4472858006	 0.5024355187	-2.8703008206	 0.07121
O	-3.6025657894	 0.5358968354	-1.4505837199	-0.241033
C	-2.4396356474	 1.1469953741	-2.0126876604	 0.039552
C	-1.0888297802	 0.5008687384	-1.7083168573	 0.065153
O	-1.239637383	-0.7968102634	-1.1099475587	-0.267367
H	 0.6862533752	-0.12673057	-2.8663756961	 0.11149
H	-0.7029015359	 0.2226805204	-3.9312181682	 0.104533
H	-0.3459887297	-2.2894359336	-2.2896969519	 0.078155
H	-2.1736761376	-2.6588513962	-3.7526708472	 0.09479
H	-2.8863419402	-2.4037439805	-2.1649403954	 0.128288
H	-2.899540991	-0.5589846549	-4.6027322594	 0.10666
H	-4.2594845157	-1.2541216531	-3.7596037859	 0.111336
H	-4.1369643399	 1.1707682276	-3.3930646765	 0.085161
H	-2.4392557481	 2.2380145676	-1.9668867964	 0.085561
H	-0.4840238757	 1.1644411833	-1.0813729862	 0.077309
141.5979	226.7194	293.7663	329.7736	346.3446	422.9606	512.4637	609.5932	661.2634	734.5061	772.1645	798.5396	862.1529	885.8704	902.1385	927.2697	939.9223	963.0513	1018.7117	1031.9257	1062.2045	1082.1964	1101.0547	1115.8389	1142.5363	1164.5421	1215.313	1245.3913	1262.9634	1275.302	1299.5263	1326.1271	1355.3978	1368.624	1383.5129	1396.2006	1408.1092	1464.5827	1478.0626	1492.0931	1497.1319	3013.3762	3027.9461	3045.6002	3046.6413	3050.4314	3067.6244	3079.93	3081.1306	3089.9389	3136.2125
C1C2CCC3OC3C1O2	C1[C@@H]2CC[C@H]3O[C@H]3[C@H]1O2	
InChI=1S/C7H10O2/c1-2-5-7(9-5)6-3-4(1)8-6/h4-7H,1-3H2	InChI=1S/C7H10O2/c1-2-5-7(9-5)6-3-4(1)8-6/h4-7H,1-3H2/t4-,5+,6-,7+/m0/s1
