19
gdb 385	3.3229747	1.4377777	1.3758285	0.7492	74.34	-0.23706	0.07783	0.31489	1022.4725	0.158067	-422.527311	-422.519845	-422.518901	-422.559241	29.52	
C	 0.8469173618	 1.3331724742	-0.0344671255	-0.345627
C	 1.4746345256	-0.0421089319	-0.2026721191	-0.313956
C	 0.0027083111	 0.1118457909	 0.0791390717	 0.446595
C	-0.6547743832	-0.3921841785	 1.3555306055	-0.311341
C	-1.4916095637	-1.5629970293	 0.847410876	 0.092116
O	-0.7223288735	-2.7620293773	 0.602033192	-0.297057
C	-0.8881402247	-2.6426547136	-0.8289061975	-0.101664
C	-1.6353520449	-1.2995144735	-0.6744800565	 0.0527
O	-0.9122966417	-0.1249435746	-0.9779062348	-0.299375
H	 1.0587530941	 1.8981444308	 0.8671037151	 0.115102
H	 0.7198439798	 1.9343534776	-0.9277501021	 0.12581
H	 1.757923364	-0.3321325914	-1.207983391	 0.118477
H	 2.1177412344	-0.4224279508	 0.5838723502	 0.115478
H	 0.0625603664	-0.7039956345	 2.1174651655	 0.119215
H	-1.3138608876	 0.3735697677	 1.7816640783	 0.106153
H	-2.3866278639	-1.7691231212	 1.4420336641	 0.076531
H	 0.0672647542	-2.5885613179	-1.3613741942	 0.111041
H	-1.4929450807	-3.4623942667	-1.2368802033	 0.09953
H	-2.6216874775	-1.22358048	-1.1330816143	 0.09027
96.7529	123.5262	257.8914	323.0852	363.5311	385.3284	472.2274	552.5729	647.4273	762.8562	772.361	801.9159	845.7642	866.325	892.8353	902.7124	921.4709	949.3261	988.1301	1016.4887	1023.5464	1043.2741	1050.1461	1073.505	1081.3118	1122.648	1160.2477	1179.9756	1188.0704	1220.9336	1244.3662	1268.4635	1293.6719	1335.7199	1350.2597	1379.5197	1381.0116	1451.9663	1468.2997	1500.7904	1509.6457	3018.1693	3038.5196	3064.9298	3076.9323	3111.2543	3116.854	3132.3085	3135.3256	3216.6384	3230.6794
C1CC11CC2OCC2O1	C1CC21C[C@@H]1OC[C@@H]1O2	
InChI=1S/C7H10O2/c1-2-7(1)3-5-6(9-7)4-8-5/h5-6H,1-4H2	InChI=1S/C7H10O2/c1-2-7(1)3-5-6(9-7)4-8-5/h5-6H,1-4H2/t5-,6-/m0/s1
