19
gdb 401	3.1249315	1.6206706	1.4387207	1.1314	74.93	-0.23296	0.08679	0.31975	981.0021	0.158535	-422.521481	-422.514274	-422.513329	-422.552792	29.322	
C	 0.5477549815	 1.2542631453	-0.1684883208	-0.325848
C	 1.5921108939	 0.1630667711	-0.0045898162	-0.339127
C	 0.1380167695	-0.1693847135	 0.0899083739	 0.488592
O	-0.3720668708	-0.9200385034	-0.9939202261	-0.316902
C	-1.7618380491	-1.2332130796	-0.877654981	-0.086904
C	-2.1309494299	-1.4557578827	 0.5856853982	 0.073969
C	-0.9298357342	-2.0391234347	 1.3594054396	-0.252505
C	-0.5293624626	-0.548275243	 1.3878196599	-0.009364
O	-1.9407572018	-0.1814148718	 1.2684543424	-0.299679
H	 0.4247125973	 1.9860349207	 0.6228530038	 0.116416
H	 0.3804893943	 1.6300449365	-1.1711481734	 0.121906
H	 2.105037478	-0.1745716491	-0.8980177066	 0.125427
H	 2.190512802	 0.1432674523	 0.9002250059	 0.113603
H	-2.3842520846	-0.4202766491	-1.2792253428	 0.104462
H	-1.921187276	-2.1346863486	-1.4793790269	 0.105895
H	-3.1358465054	-1.8644182894	 0.7200788393	 0.080007
H	-1.2193986845	-2.4014084646	 2.3459287177	 0.109579
H	-0.2703619049	-2.7441538741	 0.8518422828	 0.114404
H	-0.0523260827	-0.1112265123	 2.2682070805	 0.076068
119.2217	207.7246	281.7437	345.1248	381.8259	428.0597	443.6345	549.8606	629.3953	724.8457	764.91	839.1831	858.0847	881.3268	882.6702	912.1919	938.1147	953.7975	964.5112	985.2382	1006.5089	1051.7576	1056.9572	1073.6615	1080.4001	1097.9525	1128.073	1186.9654	1206.0318	1243.1219	1252.5702	1275.8762	1284.4646	1322.213	1338.1667	1396.514	1403.365	1452.1165	1480.7819	1488.9932	1500.4814	3001.7675	3071.1013	3079.82	3084.3058	3092.5858	3132.7249	3136.1776	3152.8663	3217.9024	3232.0116
C1CC11OCC2CC1O2	C1CC21OC[C@H]1C[C@@H]2O1	
InChI=1S/C7H10O2/c1-2-7(1)6-3-5(9-6)4-8-7/h5-6H,1-4H2	InChI=1S/C7H10O2/c1-2-7(1)6-3-5(9-6)4-8-7/h5-6H,1-4H2/t5-,6+/m1/s1
