19
gdb 397	2.6227064	1.5054973	1.2259302	2.7153	74.7	-0.24583	0.06329	0.30912	1082.1023	0.156569	-422.495315	-422.487095	-422.486151	-422.528707	30.682	
C	-0.6455988443	 2.7958340878	-2.2906085102	-0.270776
O	-1.373976057	 1.5580944325	-2.3041113427	-0.268574
C	-1.0804160589	 2.1469275383	-1.0517909276	 0.402918
C	-2.1226732349	 2.6066884636	-0.0303789583	-0.324228
C	-1.0973295218	 2.2357045991	 1.0843163629	-0.313369
C	-0.2385878049	 1.476184293	 0.0380253862	 0.214253
C	 1.2976576631	 1.4173984281	 0.0590244461	-0.143206
O	 1.298676169	-0.0218829616	 0.0891638507	-0.273625
C	-0.1427679998	-0.0661925264	 0.0591139688	-0.124518
H	 0.3923304256	 2.7272257894	-2.6132327121	 0.119684
H	-1.1914970605	 3.661997447	-2.6633711451	 0.117238
H	-2.4558014551	 3.6453605599	-0.0846989806	 0.109388
H	-2.9998436004	 1.9536268639	-0.0318486555	 0.121054
H	-0.5772361759	 3.1100810316	 1.48526247	 0.109007
H	-1.4742396651	 1.6396964573	 1.9184125881	 0.109556
H	 1.8021216665	 1.8115879083	-0.8335363306	 0.099116
H	 1.7669078079	 1.8525507487	 0.9518714302	 0.0995
H	-0.5202925289	-0.5612732009	-0.8433442612	 0.118761
H	-0.5594717045	-0.5530129697	 0.9505230609	 0.097821
60.1362	78.6877	183.7416	239.3046	278.3588	332.0524	411.4525	481.6176	529.7819	572.5165	740.577	847.2111	852.3745	867.3144	882.1701	905.4029	936.075	950.528	966.4473	993.004	1043.4275	1112.8507	1122.1009	1133.3053	1154.1051	1164.2706	1166.837	1178.4786	1188.026	1217.7044	1238.5594	1254.1737	1302.2956	1311.6113	1381.6379	1424.1413	1473.9493	1491.536	1503.0088	1530.6178	1534.3975	2994.4912	3011.5398	3037.0581	3059.7057	3063.2458	3064.3346	3080.2586	3107.7423	3123.0831	3167.041
C1OC11CCC11COC1	C1O[C@@]21CCC12COC1	
InChI=1S/C7H10O2/c1-2-7(5-9-7)6(1)3-8-4-6/h1-5H2	InChI=1S/C7H10O2/c1-2-7(5-9-7)6(1)3-8-4-6/h1-5H2/t7-/m1/s1
