19
gdb 384	3.1691736	1.5620322	1.4644271	3.0733	74.02	-0.23754	0.07682	0.31436	977.444	0.15938	-422.548	-422.54097	-422.540026	-422.579275	28.503	
C	 0.8227009169	 0.9725935224	-0.9342425829	-0.273846
O	-0.0670966002	 0.1727636816	-0.147025916	-0.282116
C	 1.2872988807	 0.2745948754	 0.2679048031	 0.497877
C	 1.6313055445	 0.9547031192	 1.6086989836	-0.318231
C	 2.6737023652	-0.0288351359	 2.1963036527	-0.051296
C	 1.9444418318	-1.3438863508	 2.517908404	-0.07029
O	 1.6265023047	-1.8955112717	 1.2251804416	-0.272958
C	 2.1569077493	-0.9819487821	 0.2557453608	 0.014317
C	 3.4397685839	-0.4655450664	 0.9227351877	-0.24164
H	 1.0543842097	 0.578339581	-1.9236498024	 0.111829
H	 0.6461241257	 2.0475233603	-0.8957101091	 0.110458
H	 2.0615341654	 1.950041543	 1.4594240356	 0.102624
H	 0.7399084576	 1.0594825694	 2.2332675979	 0.118597
H	 3.267109395	 0.365911472	 3.0213524885	 0.071036
H	 2.5795353685	-2.0504262356	 3.0684675228	 0.096159
H	 1.0210370613	-1.1884129097	 3.0886952052	 0.103391
H	 2.2279132458	-1.4973362299	-0.7017732489	 0.075622
H	 4.1722003787	-1.2577522203	 1.0943472318	 0.107061
H	 3.9088644056	 0.3664836384	 0.3907629442	 0.101406
101.4568	235.2821	288.7264	345.1384	403.5123	441.3116	483.9323	537.3428	666.8578	785.8798	827.2959	837.3617	868.0905	892.855	918.6036	925.52	944.6232	958.8452	968.7615	978.1244	998.538	1078.8614	1086.8707	1123.176	1126.3653	1152.6698	1174.303	1185.4593	1221.2066	1229.3472	1258.5425	1288.5392	1296.7236	1312.4303	1333.2183	1381.4946	1432.8788	1480.9336	1493.4029	1529.6803	1533.5756	3010.0498	3049.2073	3052.1002	3065.0749	3072.2204	3100.5279	3113.9324	3121.5751	3126.9991	3157.0539
C1OC11CC2COC1C2	C1O[C@@]21C[C@H]1CO[C@@H]2C1	
InChI=1S/C7H10O2/c1-5-2-7(4-9-7)6(1)8-3-5/h5-6H,1-4H2	InChI=1S/C7H10O2/c1-5-2-7(4-9-7)6(1)8-3-5/h5-6H,1-4H2/t5-,6+,7+/m0/s1
