19
gdb 221	2.7719614	1.9938687	1.8561307	1.8444	72.89	-0.23779	0.08185	0.31964000000000004	867.0871	0.161291	-422.561761	-422.555379	-422.554435	-422.592107	26.947	
C	 0.3064883262	-1.7579608071	-0.392781767	-0.23997
C	 1.1944897766	-0.4872934179	-0.4141961363	 0.098979
O	 0.4810185793	 0.5793904191	 0.2228572122	-0.288369
C	-0.6018618665	 1.0010240784	-0.5974996523	 0.196631
C	-0.0720475357	 1.8543723462	-1.7484398604	-0.220084
C	 0.8914084706	 0.9756904739	-2.5876416791	-0.242773
C	 0.9512002753	-0.4085540583	-1.9537617711	-0.049064
C	-0.4029503419	-1.1015829767	-1.6049964246	 0.09898
O	-1.3178854874	-0.1123682498	-1.1181247987	-0.288368
H	 0.8588809548	-2.6603877853	-0.6682813651	 0.095599
H	-0.2967578004	-1.9224018645	 0.5012939235	 0.106138
H	 2.2062489414	-0.4988181733	-0.0043228069	 0.074284
H	-1.2930845225	 1.5469313207	 0.0481538609	 0.086072
H	-0.9192368883	 2.2088709275	-2.3422027587	 0.10524
H	 0.4349838572	 2.7296115207	-1.3327127585	 0.10524
H	 0.5503556811	 0.8953451799	-3.6248314138	 0.105449
H	 1.8947327076	 1.4123207463	-2.622700048	 0.105449
H	 1.6121701827	-1.096127689	-2.4857463065	 0.076284
H	-0.9325127102	-1.7058139606	-2.3440864095	 0.074284
166.9358	325.1932	332.7588	405.917	461.1648	525.8295	557.3157	666.8108	744.506	792.5708	827.8256	834.3573	850.7395	871.8468	892.5413	910.9153	961.3646	969.6628	995.0291	1044.9395	1048.0614	1095.4372	1124.2215	1130.7094	1147.6377	1158.174	1186.1146	1240.0878	1256.1712	1270.0943	1278.8578	1294.1796	1323.7494	1341.1572	1358.0477	1376.9544	1393.6575	1396.4465	1466.5029	1476.0184	1498.7865	3041.0939	3057.5589	3063.1681	3074.7705	3084.9782	3090.8874	3093.6543	3100.0313	3105.2107	3137.0066
C1C2OC3CCC2C1O3	C1[C@@H]2O[C@H]3CC[C@@H]2[C@@H]1O3	
InChI=1S/C7H10O2/c1-2-7-8-5-3-6(9-7)4(1)5/h4-7H,1-3H2	InChI=1S/C7H10O2/c1-2-7-8-5-3-6(9-7)4(1)5/h4-7H,1-3H2/t4-,5-,6+,7+
