19
gdb 225	2.7474299	2.1399586	1.9227093	2.1734	72.27	-0.23121	0.08461	0.31582	837.1867	0.162267	-422.563272	-422.557414	-422.55647	-422.59302	25.891	
C	-2.004545987	-0.1503673399	-1.4212204658	-0.213995
C	-0.6558155185	-0.6947536811	-1.9479712046	-0.064988
C	-0.0741095989	 0.6302655468	-2.483303032	-0.233457
C	-0.1016905567	 1.4093648554	-1.1463220008	 0.082979
O	 1.1299294867	 1.1693243358	-0.4713052835	-0.259463
C	 1.4371245599	-0.2297522315	-0.4890454472	-0.082793
C	 0.10749507	-0.9855430014	-0.5866972144	 0.053486
O	-0.6985187601	-0.3402774713	 0.4184333137	-0.257607
C	-1.293432405	 0.7031526847	-0.3566608592	 0.07043
H	-2.5589343027	 0.3994008545	-2.1856461485	 0.093614
H	-2.6549514279	-0.8876451028	-0.9479626385	 0.105675
H	-0.6817343466	-1.5373545725	-2.6389325118	 0.066882
H	 0.9401017879	 0.5797095713	-2.8834722761	 0.107538
H	-0.7198689135	 1.0635007179	-3.2518487905	 0.096057
H	-0.209959259	 2.4912036547	-1.2286145179	 0.079475
H	 2.1267383755	-0.4797954229	-1.3092488716	 0.08536
H	 1.931952725	-0.4601678326	 0.4590336239	 0.112793
H	 0.2021581972	-2.0478555188	-0.3523853707	 0.080927
H	-1.8838253363	 1.3444095835	 0.2968811854	 0.077088
320.2191	335.6245	413.0876	498.3756	530.0041	558.7844	629.4914	667.0233	770.1419	785.535	849.8617	869.6395	881.2968	901.4017	915.0127	942.7214	953.9089	969.0728	983.6827	1020.3479	1030.4491	1065.593	1083.2836	1094.0605	1132.0618	1166.0545	1193.0207	1202.2278	1232.6121	1265.2426	1279.8783	1293.5653	1301.1457	1313.2182	1331.3482	1344.4453	1353.2242	1396.0466	1485.8592	1506.0487	1523.4394	2987.889	3062.3565	3072.1328	3078.1374	3091.1825	3108.5191	3114.937	3117.9909	3129.9905	3131.1298
C1C2CC3OCC2OC13	C1[C@H]2C[C@@H]3OC[C@H]2O[C@H]13	
InChI=1S/C7H10O2/c1-4-2-6-5(1)8-3-7(4)9-6/h4-7H,1-3H2	InChI=1S/C7H10O2/c1-4-2-6-5(1)8-3-7(4)9-6/h4-7H,1-3H2/t4-,5+,6-,7-/m1/s1
