19
gdb 357	4.3547593	0.9826172	0.917332	2.4918	78.94	-0.22936	0.00518	0.23454	1322.5045	0.157674	-422.53053	-422.522107	-422.521163	-422.564838	29.978	
C	-0.5981797062	-3.1268735862	 0.6246082209	-0.059635
C	-1.6974604584	-2.1536714801	 0.1622343149	-0.298183
C	-0.8572572295	-1.0774844973	 0.9063739014	 0.030609
O	 0.2085744314	-2.0415518577	 1.1311863569	-0.292763
C	-0.3990446383	 0.1240805911	 0.1603608183	 0.329541
C	-0.6866571711	 1.4005820643	 0.4037607849	-0.235662
C	-0.0322539134	 2.2825158832	-0.6188678751	-0.100155
O	 0.6712687036	 1.3945935249	-1.4828794864	-0.268167
C	 0.5049079693	 0.0483363042	-1.0461432847	-0.155065
H	-0.9000149598	-3.815877869	 1.4241020901	 0.102156
H	-0.0775632645	-3.6946707603	-0.1542531553	 0.108701
H	-1.7467796943	-2.0091540347	-0.9181496578	 0.116703
H	-2.7030884664	-2.321641327	 0.5493052249	 0.114028
H	-1.312647402	-0.7739288803	 1.8586800788	 0.076041
H	-1.2966652521	 1.7800708699	 1.2145278688	 0.101751
H	-0.760959844	 2.8712498151	-1.1993833292	 0.104416
H	 0.6687662082	 3.000530694	-0.1628340656	 0.106518
H	 0.0759428522	-0.5547214694	-1.862489785	 0.098313
H	 1.4782405354	-0.3957185448	-0.7932717307	 0.120854
54.6035	81.1905	101.7768	145.6971	206.4559	323.0679	386.3099	526.7226	625.7146	757.8566	782.5109	824.608	841.1612	889.3915	920.8149	942.6105	945.9222	975.0557	1010.5499	1023.7045	1032.2974	1063.2199	1094.4308	1114.4501	1166.4783	1173.5131	1213.0871	1220.4908	1224.9058	1254.9347	1266.6184	1299.062	1353.1144	1366.436	1379.3512	1400.9308	1490.0655	1515.873	1528.6537	1531.7493	1724.7717	2965.7965	2975.0934	2980.8699	3006.9076	3011.8079	3016.8897	3063.0889	3085.1447	3141.0352	3209.6444
C1CC(O1)C1=CCOC1	C1C[C@@H](O1)C1=CCOC1	
InChI=1S/C7H10O2/c1-3-8-5-6(1)7-2-4-9-7/h1,7H,2-5H2	InChI=1S/C7H10O2/c1-3-8-5-6(1)7-2-4-9-7/h1,7H,2-5H2/t7-/m1/s1
