19
gdb 250	2.9374983	1.7982767	1.2978705	0.4012	75.71	-0.2251	0.09233	0.31743	998.0919	0.158991	-422.519049	-422.511899	-422.510955	-422.550312	28.99	
C	 1.3435108953	 1.4025988706	 0.7175239954	-0.352565
C	 0.4259895902	 1.0521581895	-0.4402224692	-0.148071
C	 1.2219236695	 1.155738844	-1.7491853009	-0.247268
C	 2.2157212665	 0.078342264	-1.2244033662	 0.03451
O	 2.0201684266	-1.1345059318	-1.9385519604	-0.269336
C	 2.1847047524	-2.2670373705	-1.098263887	-0.083519
C	 1.1714066682	-2.2414612377	 0.0404029503	-0.09473
O	 1.3653028182	-1.0910096447	 0.8648905774	-0.285976
C	 1.46494756	 0.0557531339	 0.1064037408	 0.439163
H	 2.1251393331	 2.1530600931	 0.6072664425	 0.103905
H	 0.8648986376	 1.3912515984	 1.6921788756	 0.12194
H	-0.6513585534	 1.0861657918	-0.3386939816	 0.091054
H	 0.6957923239	 0.7782705656	-2.6270335795	 0.11776
H	 1.6503963781	 2.1387125144	-1.970058938	 0.095304
H	 3.2880161389	 0.3269498124	-1.1914477536	 0.061195
H	 2.0323578738	-3.1493612905	-1.7272902768	 0.110719
H	 3.2056887576	-2.3042702497	-0.684231284	 0.095775
H	 0.1537847756	-2.2364912763	-0.3773943667	 0.10168
H	 1.2875113878	-3.1122053565	 0.6917423619	 0.108459
148.5692	161.0888	320.9985	386.541	406.1495	413.1578	467.5654	479.6936	595.574	638.4131	766.5261	824.1793	856.8084	884.2836	901.6687	933.4038	955.7732	959.4486	995.0614	1018.5411	1030.5623	1087.9342	1097.7732	1105.5186	1129.6927	1147.0241	1187.3653	1226.9039	1241.4864	1260.4976	1277.3042	1288.3925	1329.9521	1355.6402	1366.4137	1408.007	1418.0618	1473.1068	1485.1859	1487.896	1507.0995	2973.5144	2980.2982	3002.4928	3050.9075	3087.2078	3092.802	3096.0109	3127.2827	3189.2233	3197.7848
C1C2CC3OCCOC123	C1[C@H]2C[C@@H]3OCCO[C@]123	
InChI=1S/C7H10O2/c1-2-9-7-4-5(7)3-6(7)8-1/h5-6H,1-4H2	InChI=1S/C7H10O2/c1-2-9-7-4-5(7)3-6(7)8-1/h5-6H,1-4H2/t5-,6+,7-/m1/s1
