19
gdb 255	2.9335614	1.7505148	1.2618025	1.6097	74.77	-0.21757	0.0765	0.29407	1013.8924	0.158892	-422.516455	-422.509276	-422.508332	-422.547752	29.145	
C	-0.0824941381	-0.0979608259	 0.0658958805	-0.36183
C	 1.4008745458	-0.3339466249	-0.0970325265	-0.006462
O	 1.7546601422	-0.3185906618	-1.485131494	-0.301595
C	 1.3448919103	 1.0780308272	-1.6049625804	 0.058752
C	 2.5390244235	 2.0234716305	-1.7568728399	-0.230174
C	 2.2869430101	 3.3135017398	-0.9582711155	-0.216344
C	 1.9910164529	 2.9783685373	 0.5043053915	-0.075896
O	 0.8116420441	 2.179601281	 0.6412147927	-0.284327
C	 0.8184794603	 1.0720228873	-0.1715601006	 0.364191
H	-0.7812331068	-0.4461567523	-0.6914258689	 0.111969
H	-0.4324649327	-0.1637289052	 1.0924278061	 0.121484
H	 2.0332975708	-0.8814165667	 0.5911371393	 0.107029
H	 0.6029553731	 1.21167846	-2.4015508882	 0.080827
H	 3.4193904455	 1.5128530479	-1.350814823	 0.113827
H	 2.7437050548	 2.2353012513	-2.8104892436	 0.102124
H	 3.1606108077	 3.9724015472	-1.0094446202	 0.103422
H	 1.4375444494	 3.8689520608	-1.3752044932	 0.109297
H	 2.8486577768	 2.4481313786	 0.9480591398	 0.09438
H	 1.8014623103	 3.8793616677	 1.092878834	 0.109327
144.4325	170.0899	308.9292	386.2441	391.1139	443.7852	464.7803	471.4818	568.6693	645.9532	782.5722	818.3276	850.4306	882.5545	909.2962	914.7459	927.7718	970.55	975.4484	1013.5277	1021.8464	1065.9518	1084.8961	1091.5937	1124.0029	1133.3349	1199.3322	1207.3312	1218.344	1271.2816	1291.7892	1313.6658	1347.2379	1367.5966	1373.1351	1387.5941	1422.4746	1477.785	1478.997	1494.482	1508.2418	2983.0369	3031.4143	3033.3159	3044.517	3078.2542	3093.4372	3098.6239	3104.1723	3188.3647	3202.1123
C1C2OC3CCCOC123	C1[C@H]2O[C@@H]3CCCO[C@]123	
InChI=1S/C7H10O2/c1-2-5-7(8-3-1)4-6(7)9-5/h5-6H,1-4H2	InChI=1S/C7H10O2/c1-2-5-7(8-3-1)4-6(7)9-5/h5-6H,1-4H2/t5-,6-,7+/m1/s1
