19
gdb 270	4.1289977	1.1772399	1.1040976	1.616	75.28	-0.24417	0.06275	0.30691999999999997	1166.5502	0.15712	-422.495469	-422.487388	-422.486444	-422.52877	30.084	
C	 0.6594912135	 1.0603579786	-1.2466303366	-0.056274
C	 0.165635672	-0.2125713344	-0.5333293394	-0.293923
C	 0.8388946636	 0.4075677305	 0.7189421815	 0.000666
O	 1.1886548147	 1.6008461265	-0.0143265964	-0.285457
C	 2.0498877381	-0.2938076098	 1.2420246163	 0.431748
C	 2.1932384684	-1.2679794563	 2.4284676586	-0.309104
C	 3.6684824184	-0.7585576081	 2.6027816578	-0.237649
C	 3.435876971	 0.1777511864	 1.4085547107	-0.030945
O	 3.0672182599	-0.6494187154	 0.2951228404	-0.292967
H	 1.4501642738	 0.9030799881	-1.9883734054	 0.114116
H	-0.1156751647	 1.7073720577	-1.6729094321	 0.100611
H	-0.9179801386	-0.3149890971	-0.4651170406	 0.109815
H	 0.6063748916	-1.1486784894	-0.8764423667	 0.124414
H	 0.1596808752	 0.6325029879	 1.5524843356	 0.0756
H	 1.5585777042	-1.0083227142	 3.2793748314	 0.107178
H	 2.0596279022	-2.3231740004	 2.1798828968	 0.108652
H	 3.8180565513	-0.2273707095	 3.5455731516	 0.107673
H	 4.4656562119	-1.4927545252	 2.4658805369	 0.112071
H	 3.8770000532	 1.1399038141	 1.1789121197	 0.113777
67.6373	80.9121	149.5353	208.2816	269.7034	348.5174	469.3925	508.7744	681.8848	736.6279	772.2845	794.4768	829.4287	880.7694	909.0904	920.6254	930.0788	954.7601	962.4439	1013.8402	1034.3421	1042.1987	1060.4606	1102.1973	1131.227	1164.8753	1171.8232	1212.1539	1218.9863	1222.9243	1249.9984	1259.3022	1267.2583	1274.9694	1358.8685	1384.0036	1450.4286	1463.4718	1484.9879	1491.1065	1525.6153	3010.7926	3027.8852	3063.6855	3071.4003	3071.749	3088.0843	3115.4417	3131.8592	3147.6094	3200.6369
C1CC(O1)C12CCC1O2	C1C[C@H](O1)[C@]12CC[C@H]1O2	
InChI=1S/C7H10O2/c1-3-7(6(1)9-7)5-2-4-8-5/h5-6H,1-4H2	InChI=1S/C7H10O2/c1-3-7(6(1)9-7)5-2-4-8-5/h5-6H,1-4H2/t5-,6+,7+/m0/s1
