19
gdb 381	3.1871354	1.603601	1.5119818	1.2302	74.56	-0.2268	0.0899	0.3167	965.1322	0.158951	-422.54285	-422.535786	-422.534842	-422.574053	28.924	
C	 0.996151379	 1.2876590108	 0.0431628492	-0.338905
C	 1.5731406801	-0.1169388825	-0.088462397	-0.348981
C	 0.1049312098	 0.0943990214	 0.1090994931	 0.494012
O	-0.4740440006	-0.264669895	 1.3682767687	-0.32577
C	-1.7943744052	-0.7329602247	 1.0466779021	 0.068122
C	-2.6049433938	 0.4727404925	 0.5493664743	-0.08122
O	-2.0345682436	 0.7335879552	-0.7506304877	-0.28005
C	-0.9794715436	-0.2300599256	-0.9042620203	-0.011668
C	-1.5776580573	-1.4964553828	-0.2708907435	-0.247322
H	 1.1804597749	 1.8126581593	 0.9737187505	 0.122896
H	 0.949627579	 1.9204711418	-0.8368942126	 0.119214
H	 1.9330440697	-0.4455716491	-1.0583316478	 0.111517
H	 2.1252656815	-0.5076879563	 0.7592668658	 0.122552
H	-2.200445521	-1.2647459812	 1.9059363083	 0.085476
H	-3.6767745498	 0.2586355835	 0.4481559054	 0.097429
H	-2.4667564007	 1.3394436917	 1.2042057178	 0.110147
H	-0.6682280685	-0.2513609816	-1.9475530055	 0.082314
H	-2.4962293018	-1.8221842015	-0.7619416603	 0.106744
H	-0.8727763881	-2.3224285957	-0.1654869106	 0.113493
113.1463	226.1061	271.5499	328.2478	428.0756	462.4632	506.6786	553.2839	677.8466	760.6752	806.3922	825.4052	850.9709	883.2434	902.8494	923.4373	932.41	957.5744	971.3984	981.6026	995.2819	1013.7027	1049.4584	1065.7604	1068.4249	1082.7172	1136.1307	1185.2809	1186.2397	1215.3425	1234.0467	1269.8969	1285.9939	1299.1836	1344.2617	1366.6389	1396.9592	1451.7676	1480.6348	1502.9544	1513.3196	3017.5283	3074.3365	3083.4068	3127.2572	3132.8031	3134.9882	3139.7281	3147.3555	3212.84	3227.4833
C1CC11OC2COC1C2	C1CC21O[C@H]1CO[C@@H]2C1	
InChI=1S/C7H10O2/c1-2-7(1)6-3-5(9-7)4-8-6/h5-6H,1-4H2	InChI=1S/C7H10O2/c1-2-7(1)6-3-5(9-7)4-8-6/h5-6H,1-4H2/t5-,6-/m1/s1
