19
gdb 317	2.8196394	1.7965864	1.3237132	1.0393	73.84	-0.24724	0.08359	0.33082999999999996	996.6757	0.15932	-422.556925	-422.549497	-422.548553	-422.58905	28.771	
C	 1.5789134686	 0.7260708913	 2.8347393464	-0.066107
C	 1.0897746336	 1.5860717227	 1.6294362311	-0.386186
C	 1.1516797659	 0.5598449888	 0.5224755379	 0.459333
O	 1.0936743522	 0.7917876591	-0.8741781592	-0.325229
C	 0.0676975122	-0.0312299905	-0.2615816043	-0.024827
C	 0.2597840622	-1.5292528545	-0.3754932384	-0.244622
C	 1.6830570255	-1.7977257027	 0.19201082	-0.255617
C	 2.0804130435	-0.5469609803	 0.9891631951	 0.055774
O	 1.742890673	-0.6216442187	 2.3710778222	-0.274244
H	 2.5340855769	 1.1099576409	 3.2206565289	 0.098443
H	 0.863798977	 0.7007124732	 3.6605873283	 0.112821
H	 0.0872561132	 1.9925443501	 1.7795931952	 0.115884
H	 1.7667872174	 2.4225773474	 1.4322566603	 0.118774
H	-0.9278687109	 0.4049393385	-0.2914338676	 0.094002
H	-0.5103185083	-2.0157432606	 0.2337410722	 0.112492
H	 0.1435171733	-1.8971811383	-1.399412119	 0.111434
H	 1.7245492712	-2.6914384085	 0.8187209662	 0.117867
H	 2.3978067417	-1.9350192682	-0.6228830687	 0.115277
H	 3.1469260019	-0.2991067595	 0.8677807832	 0.06473
72.4904	144.3778	200.1417	296.8869	358.8113	423.7667	529.4153	584.7237	699.9783	702.8227	772.0872	802.0691	818.7208	866.9001	903.1963	933.7178	945.3675	956.0498	976.7904	1029.6627	1051.5896	1079.7211	1098.4056	1115.9434	1188.8719	1201.0811	1224.3331	1233.2076	1253.3676	1270.5756	1298.68	1319.4316	1330.1365	1355.5998	1368.7051	1390.1613	1466.3183	1486.4466	1490.4552	1496.0653	1521.084	2975.5454	2999.6189	3046.1655	3061.504	3073.4808	3087.5467	3089.1552	3112.0233	3121.1668	3145.0561
C1CC23OC2CCC3O1	C1C[C@]23O[C@H]2CC[C@@H]3O1	
InChI=1S/C7H10O2/c1-2-6-7(9-6)3-4-8-5(1)7/h5-6H,1-4H2	InChI=1S/C7H10O2/c1-2-6-7(9-6)3-4-8-5(1)7/h5-6H,1-4H2/t5-,6-,7+/m0/s1
