19
gdb 268	4.1841893	1.1122645	1.0295685	2.6434	75.19	-0.23284	0.06235	0.29519	1203.4257	0.157268	-422.483943	-422.475888	-422.474944	-422.517332	29.955	
C	 2.2814180607	-1.3695777957	 0.3020297493	-0.352836
C	 3.4909060148	-0.6486047367	-0.2067402041	 0.064527
O	 4.0761116924	-1.3438268203	-1.3114969894	-0.286349
C	 2.8702017825	-1.131190814	-2.0911643552	-0.143722
C	 2.1629875258	-0.4654982712	-0.9099212905	 0.27581
C	 1.2555848787	 0.7185867683	-0.9800186894	 0.018814
C	-0.2806510282	 0.5016715973	-0.9796104498	-0.291545
C	-0.2618662046	 1.3999000048	 0.2703600808	-0.061048
O	 1.183834123	 1.4247291489	 0.2839582103	-0.293653
H	 2.2230344901	-2.4505778035	 0.2059912075	 0.109573
H	 1.847341347	-0.9440405782	 1.2009373864	 0.127922
H	 4.116302226	 0.02560827	 0.3661213507	 0.114851
H	 3.0670175152	-0.4411418799	-2.9210309766	 0.106411
H	 2.4516716166	-2.0674100799	-2.4795262844	 0.104141
H	 1.592052101	 1.3944483224	-1.7809427995	 0.071898
H	-0.8229822632	 0.8810664932	-1.8464942437	 0.110089
H	-0.5740734193	-0.5315829251	-0.7867160465	 0.114368
H	-0.680801402	 2.4038584408	 0.1265840202	 0.103368
H	-0.6709223563	 0.973173469	 1.1927744839	 0.107382
59.3288	83.1464	147.3379	219.2485	310.0417	344.1448	444.3191	471.2575	655.3935	757.5062	774.9839	833.608	855.0534	883.1379	930.4913	952.9536	954.5894	987.913	1000.6277	1017.3783	1023.4724	1048.7441	1058.7215	1079.1268	1091.6856	1130.3525	1160.8064	1170.062	1208.8227	1219.9585	1256.4457	1275.7548	1278.0888	1316.1673	1356.7155	1387.7036	1418.1114	1476.0651	1486.7383	1514.8139	1531.3316	2981.7029	3015.2711	3018.5005	3063.1125	3064.2792	3081.2195	3114.4897	3139.0205	3189.3008	3216.6086
C1C2OCC12C1CCO1	C1[C@H]2OC[C@@]12[C@H]1CCO1	
InChI=1S/C7H10O2/c1-2-8-5(1)7-3-6(7)9-4-7/h5-6H,1-4H2	InChI=1S/C7H10O2/c1-2-8-5(1)7-3-6(7)9-4-7/h5-6H,1-4H2/t5-,6-,7-/m1/s1
