19
gdb 6	4.0319511	0.9224262	0.8974237	1.9674	78.88	-0.19836	0.02641	0.22477	1389.1963	0.155838	-422.585648	-422.576153	-422.575209	-422.620152	34.72	
C	-1.2952899308	 3.9184316818	-1.16825096	-0.383177
C	-1.825682119	 3.0359904487	-0.0219005725	-0.086513
C	-1.3968158368	 3.5919096289	 1.3496435826	-0.383175
C	-1.4038227856	 1.6105875826	-0.1897128781	 0.430927
C	-2.0952781501	 0.4496861943	-0.3680950663	-0.45797
C	-1.1130826326	-0.5922628164	-0.4635638051	 0.309503
O	-1.3175597611	-1.9254218641	-0.6445331657	-0.44085
C	 0.1020938499	 0.004608159	-0.3371557146	-0.123317
O	-0.0701932142	 1.3544314021	-0.1691093786	-0.196142
H	-1.6411923494	 3.5539843507	-2.1399353429	 0.117242
H	-1.6357142004	 4.9517698394	-1.047011128	 0.109618
H	-0.2012210761	 3.9191766519	-1.1784445807	 0.130111
H	-2.9215076001	 3.0347573675	-0.0662432222	 0.084583
H	-1.8149867074	 2.9957666877	 2.1659685836	 0.117244
H	-0.3070675509	 3.5785286955	 1.4463353243	 0.130115
H	-1.7369016004	 4.6255924308	 1.4688844692	 0.109614
H	-3.1687197401	 0.3448339674	-0.4249229584	 0.101279
H	-2.2633821696	-2.0853589615	-0.7043453902	 0.300149
H	 1.1137464147	-0.3598728063	-0.3435669563	 0.13076
45.9019	118.4589	175.086	195.6841	219.4864	256.8661	292.6102	296.4782	394.962	422.4197	495.789	615.6476	630.8309	694.8554	715.0995	716.4146	774.6007	873.7467	929.4014	957.6909	962.0068	1007.5204	1056.9108	1119.6801	1146.4437	1158.7054	1178.1915	1204.7242	1284.4557	1328.0994	1331.5553	1352.688	1393.7151	1415.6696	1448.3812	1485.694	1491.3195	1499.3703	1510.4646	1588.5834	1690.5644	3034.8109	3035.8923	3038.7564	3105.5849	3109.9258	3114.0237	3118.3258	3238.4182	3297.1748	3849.0064
CC(C)C1=CC(O)=CO1	CC(C)c1cc(O)co1	
InChI=1S/C7H10O2/c1-5(2)7-3-6(8)4-9-7/h3-5,8H,1-2H3	InChI=1S/C7H10O2/c1-5(2)7-3-6(8)4-9-7/h3-5,8H,1-2H3
