19
gdb 185	3.7813011	1.3074562	1.2301078	1.2389	74.81	-0.24695	0.09207	0.33902	1086.3201	0.1582	-422.526123	-422.518467	-422.517523	-422.558785	29.338	
C	 1.2549665992	 1.1978624486	 0.1306948437	-0.284468
C	 0.1830625114	 0.7961904323	-0.8391729168	-0.042258
C	 0.4002560906	-0.659831188	-1.2687125811	-0.314614
C	 1.8090455084	-0.2621440597	-1.8098969451	 0.419449
C	 2.0396228127	-0.4489212047	-3.3145807792	-0.178181
O	 3.4507160286	-0.5541821656	-3.4149370332	-0.239372
C	 3.8234160095	-1.2875583596	-2.2759443038	 0.014922
O	 2.9264021854	-0.9401208122	-1.2369970906	-0.306349
C	 1.5825163287	 1.1765478057	-1.3366062799	-0.09357
H	 1.1543073489	 2.1890747698	 0.560981766	 0.110923
H	 1.6987881214	 0.462112636	 0.7960522562	 0.121305
H	-0.7411664919	 1.3488738107	-0.9467112405	 0.087154
H	 0.4015403328	-1.4042340508	-0.4671442671	 0.106958
H	-0.2676705698	-0.9967325774	-2.0670752344	 0.101256
H	 1.5474721355	-1.3691788445	-3.6701029485	 0.091609
H	 1.7075612306	 0.3944665967	-3.9228801117	 0.121612
H	 3.7610908134	-2.3741534034	-2.4672820409	 0.084406
H	 4.8481889169	-1.0143042968	-2.0022976442	 0.115109
H	 1.9149376678	 2.0625189328	-1.8656106486	 0.084107
49.6531	133.0454	199.7538	260.9089	371.9274	394.3083	443.404	518.0003	723.2931	747.9656	769.5985	793.107	838.8695	903.17	918.4735	953.4821	979.2704	982.3598	990.3633	1027.1571	1037.9497	1061.1646	1084.119	1104.1185	1119.6232	1143.8646	1153.8697	1173.8077	1198.5964	1225.7458	1230.4599	1248.2248	1265.3438	1314.8623	1356.878	1370.923	1432.937	1476.7125	1495.7467	1507.8508	1548.4078	2937.2228	2970.3461	3047.1759	3064.1107	3099.8627	3112.2199	3116.8212	3172.303	3194.2291	3207.1158	49.6515	133.0451	199.7536	260.9088	371.9273	394.3082	443.404	518.0003	723.2931	747.9657	769.5984	793.107	838.8694	903.17	918.4734	953.482	979.2703	982.3598	990.3632	1027.157	1037.9495	1061.1646	1084.1189	1104.1184	1119.6231	1143.8647	1153.8697	1173.8078	1198.5964	1225.7458	1230.4599	1248.225	1265.3437	1314.8622	1356.8778	1370.923	1432.937	1476.7127	1495.7466	1507.8505	1548.4079	2937.2226	2970.3461	3047.1759	3064.1106	3099.8627	3112.2199	3116.8212	3172.3029	3194.2291	3207.1159
C1C2CC3(COCO3)C12	C1[C@@H]2C[C@@]3(COCO3)[C@H]12	
InChI=1S/C7H10O2/c1-5-2-7(6(1)5)3-8-4-9-7/h5-6H,1-4H2	InChI=1S/C7H10O2/c1-5-2-7(6(1)5)3-8-4-9-7/h5-6H,1-4H2/t5-,6-,7-/m1/s1
