19
gdb 329	2.4050654	2.1620185	1.7283884	0.1427	72.75	-0.24206	0.063	0.30506	890.6783	0.160508	-422.528158	-422.521553	-422.520609	-422.558737	27.461	
C	-0.7199925147	 0.9387382581	-1.303010717	-0.191243
C	 0.3897658539	 1.9999408454	-1.5013641189	-0.202454
C	 1.4004576443	 2.1368269761	-0.3694659455	 0.067567
O	 0.7452353537	 2.6237945785	 0.848865621	-0.30034
C	 0.9816963069	 1.3776615476	 1.4978002939	 0.061448
C	 0.0443732086	 0.2192074999	 1.015811946	 0.068307
C	-1.1436180435	 0.6663907026	 0.1537130325	-0.227334
O	 1.1308554516	-0.3306533155	 0.1986778281	-0.298443
C	 1.898444152	 0.8571921488	 0.3949603186	 0.051751
H	-1.6024852189	 1.2433127796	-1.8755392359	 0.089338
H	-0.3818228795	-0.0092628403	-1.7267312297	 0.119229
H	 0.9235102073	 1.8001938937	-2.4384672232	 0.100914
H	-0.0597021295	 2.9945604232	-1.610368408	 0.111682
H	 2.207928497	 2.8225879049	-0.6514376214	 0.081033
H	 1.1977953211	 1.4654240221	 2.5632158213	 0.086157
H	-0.2441236685	-0.500237691	 1.7883737352	 0.080956
H	-1.9118686256	-0.1140413678	 0.1501167804	 0.097097
H	-1.5866481691	 1.5587923469	 0.6095833283	 0.115891
H	 2.973284503	 0.6778363872	 0.4425480842	 0.088443
186.8803	257.0893	294.7889	371.7202	388.6545	514.5175	602.9542	647.4712	699.3755	759.7307	798.4727	818.7942	848.3836	882.7833	895.1756	913.1729	942.6934	974.2461	1026.5336	1037.622	1058.8195	1071.9228	1083.1436	1129.9772	1159.0436	1197.5555	1214.733	1219.9759	1255.4859	1275.8132	1304.4388	1340.0762	1340.924	1342.5191	1358.9086	1374.8674	1388.3897	1403.58	1468.6954	1477.7345	1493.0608	3022.893	3037.6022	3040.5074	3053.0573	3059.2292	3062.296	3081.8799	3099.3785	3108.36	3113.0315
C1CC2OC3C(C1)OC23	C1C[C@H]2O[C@H]3[C@@H](C1)O[C@@H]23	
InChI=1S/C7H10O2/c1-2-4-6-7(8-4)5(3-1)9-6/h4-7H,1-3H2	InChI=1S/C7H10O2/c1-2-4-6-7(8-4)5(3-1)9-6/h4-7H,1-3H2/t4-,5-,6+,7+/m1/s1
