19
gdb 231	3.2880231	1.4966479	1.1657628	1.9503	74.19	-0.24589	0.08319	0.32908	1059.8868	0.159728	-422.520403	-422.513358	-422.512414	-422.551636	28.412	
C	-0.3348998289	 1.3830716449	-0.2208376028	-0.153279
O	-0.0353464447	 0.0185756679	-0.6421202763	-0.312748
C	 1.3016274958	 0.188692812	-0.1175602455	 0.193118
C	 2.5559378099	-0.3580117821	-0.761265231	-0.30574
C	 3.6996924187	 0.5033843166	-0.1950931194	 0.047929
O	 3.9469768573	 1.7614943938	-0.8323478569	-0.248821
C	 3.4808750816	 1.7935660928	 0.5194053247	 0.065365
C	 2.0936569052	 2.4030220288	 0.7452077018	-0.308189
C	 1.1739325008	 1.6994467988	-0.2334104171	 0.017846
H	-0.9823681343	 1.8994289254	-0.9344097824	 0.11061
H	-0.7943130401	 1.3964538857	 0.7785774594	 0.095916
H	 1.3014083804	-0.1092803116	 0.9465885146	 0.062727
H	 2.7346196752	-1.4117655114	-0.5258130076	 0.104543
H	 2.529123408	-0.251539386	-1.8508598336	 0.124988
H	 4.6139936854	-0.0403038546	 0.0449216641	 0.093573
H	 4.2434165797	 2.1003066371	 1.2377257723	 0.088574
H	 1.795184309	 2.2207125359	 1.7852422632	 0.105724
H	 2.1462293176	 3.4887531067	 0.6038126538	 0.110587
H	 1.4452234835	 1.9910633995	-1.2515525514	 0.107278
146.1017	218.0521	302.1807	349.5912	360.0754	385.7545	499.9191	538.3024	588.5548	744.717	768.6521	807.6817	830.9505	897.2995	926.4954	957.813	970.5369	1000.5054	1019.1587	1042.3447	1078.6447	1094.8784	1139.6719	1156.9912	1164.815	1181.2309	1199.737	1241.6456	1273.9365	1288.3413	1294.9287	1308.3632	1318.7586	1354.5237	1376.3027	1412.1194	1428.3382	1454.5086	1485.2779	1487.9778	1519.7225	2934.5584	2997.9768	3028.439	3047.2261	3064.5069	3079.6204	3088.0959	3093.4487	3096.031	3106.2107
C1OC2CC3OC3CC12	C1O[C@H]2C[C@H]3O[C@H]3C[C@H]12	
InChI=1S/C7H10O2/c1-4-3-8-5(4)2-7-6(1)9-7/h4-7H,1-3H2	InChI=1S/C7H10O2/c1-4-3-8-5(4)2-7-6(1)9-7/h4-7H,1-3H2/t4-,5+,6+,7-/m1/s1
