19
gdb 249	3.0192951	1.7342756	1.2741981	1.59	74.77	-0.23223	0.09602	0.32825	1004.5169	0.159683	-422.524454	-422.517427	-422.516483	-422.555635	28.592	
C	 1.0319938771	 1.2407020554	 1.7926344287	-0.347026
C	-0.1381831095	 2.1885423653	 1.9881998106	-0.143345
C	 0.3562158549	 3.6280292337	 1.7923293994	-0.255209
C	 0.7911744258	 3.2750599026	 0.328240939	-0.088585
C	-0.1472478532	 3.8401827556	-0.7447728357	-0.107953
O	-0.3229584171	 2.8961144897	-1.7991567103	-0.228364
C	-0.9125476573	 1.7238267331	-1.3209666657	 1.*^-6
O	-0.0724250174	 1.011032126	-0.4291323403	-0.279166
C	 0.3965573969	 1.8207332293	 0.5860992842	 0.460784
H	 2.0384148768	 1.5231832963	 2.0983832471	 0.103025
H	 0.7893924982	 0.1938004361	 1.9479835109	 0.120931
H	-1.0300748506	 1.8823158247	 2.5199998852	 0.091022
H	-0.4311456945	 4.385194511	 1.8286761719	 0.102562
H	 1.1655824993	 3.9361704854	 2.4619703691	 0.10022
H	 1.8387654089	 3.4443955425	 0.0569982765	 0.071308
H	-1.1307397084	 4.0705897531	-0.3031143849	 0.08895
H	 0.2454984704	 4.751572421	-1.2017605547	 0.113442
H	-1.8661672552	 1.9592059552	-0.8135032698	 0.079019
H	-1.0824569952	 1.0669045639	-2.175446421	 0.118383
148.3458	166.5513	354.5109	375.6738	412.174	424.8346	475.7158	509.0675	611.933	698.313	737.6983	829.271	858.0524	863.9186	936.3941	942.6147	957.9139	981.8105	1004.8231	1024.6353	1045.3932	1052.2894	1098.7309	1101.2707	1143.9062	1176.2605	1189.626	1227.7836	1244.7587	1260.7557	1272.3223	1293.9614	1331.0384	1355.064	1372.3655	1405.1997	1448.4166	1486.8305	1490.8554	1505.62	1515.2945	2934.5659	2970.8433	3042.2197	3050.177	3093.2201	3096.5514	3100.8667	3121.3513	3190.3771	3199.1421
C1C2CC3COCOC123	C1[C@H]2C[C@@H]3COCO[C@]123	
InChI=1S/C7H10O2/c1-5-2-7(5)6(1)3-8-4-9-7/h5-6H,1-4H2	InChI=1S/C7H10O2/c1-5-2-7(5)6(1)3-8-4-9-7/h5-6H,1-4H2/t5-,6-,7-/m1/s1
