19
gdb 194	2.5193364	2.1958226	2.0873727	2.0522	71.95	-0.24676	0.08292	0.32968	828.18	0.162655	-422.593	-422.587184	-422.58624	-422.622698	25.791	
C	 0.3391574656	 1.7192810946	-1.139464177	-0.224519
C	-0.7768397482	 0.6671405375	-1.2357702044	 0.108425
C	-1.3679617354	 1.0140627242	-2.6136841613	-0.219506
C	-0.0746673821	 0.9113488759	-3.4374752877	 0.08466
O	 0.1618511014	-0.5014590089	-3.579831767	-0.26478
C	 0.7249242814	-0.848863541	-2.3295676947	 0.198914
C	 1.8896937786	 0.1420866792	-2.2347366628	-0.230242
C	 1.0764062286	 1.4305399514	-2.4683901379	-0.075401
O	-0.2094872278	-0.6597191851	-1.2725519622	-0.2956
H	-0.0941663709	 2.7240616819	-1.1032766995	 0.095357
H	 0.9799634143	 1.590419933	-0.2643739614	 0.101072
H	-1.4865406505	 0.6646607571	-0.4069747814	 0.075657
H	-2.1139859424	 0.3022766089	-2.9693472271	 0.111858
H	-1.797458047	 2.0211803755	-2.6042549014	 0.09232
H	-0.0936540517	 1.362483202	-4.4297185333	 0.077101
H	 0.9745662911	-1.9103461168	-2.3357551353	 0.087297
H	 2.4067400597	 0.128627471	-1.2734107363	 0.10198
H	 2.604994085	-0.0660712052	-3.0344174625	 0.104662
H	 1.6483571805	 2.2668459846	-2.8691087166	 0.070744
317.8454	388.1451	421.7895	475.4156	515.7373	561.4551	585.7042	735.3055	799.4942	800.963	842.2002	852.7011	873.6977	906.4845	914.6676	921.5969	948.7134	960.7456	982.6546	1002.7971	1028.8244	1039.8348	1090.4697	1106.4994	1141.4593	1169.2506	1192.5958	1227.5567	1232.4452	1260.007	1292.9539	1302.5613	1320.8812	1333.2097	1344.6186	1349.9072	1370.0608	1398.3029	1472.7241	1484.4092	1505.6393	3048.8521	3057.994	3067.3399	3103.1351	3105.3075	3107.1752	3116.4226	3123.264	3123.7096	3129.4667
C1C2CC3OC(CC13)O2	C1[C@H]2C[C@@H]3O[C@@H](C[C@H]13)O2	
InChI=1S/C7H10O2/c1-4-2-7-8-5(1)3-6(4)9-7/h4-7H,1-3H2	InChI=1S/C7H10O2/c1-4-2-7-8-5(1)3-6(4)9-7/h4-7H,1-3H2/t4-,5-,6-,7-/m0/s1
