19
gdb 398	2.5204283	1.6256015	1.2824605	1.6185	74.86	-0.24686	0.06501	0.31187	1057.2087	0.156436	-422.501817	-422.493701	-422.492757	-422.534647	30.919	
C	-0.4369350004	-1.0623222409	-2.4758080332	-0.260149
O	 0.6831736928	-1.7216059128	-1.8559504002	-0.257726
C	-0.3012560806	-1.1469183199	-1.0250669738	 0.295831
C	-1.0924887347	-1.9003790931	 0.0350644111	-0.160843
O	-0.8456817388	-0.8311512809	 0.975282507	-0.33221
C	-0.0274731226	-0.0907130879	 0.0475655455	 0.384205
C	-0.3096618204	 1.4070495624	-0.1878040571	-0.292762
C	 1.2261038351	 1.6341037334	-0.2778763332	-0.215786
C	 1.4346675399	 0.2536410734	 0.4071275944	-0.283837
H	-0.2012354055	-0.1332022275	-2.9927177978	 0.122167
H	-1.1342421185	-1.7187462857	-2.9948800052	 0.120541
H	-2.1621202771	-2.0464790176	-0.1559278445	 0.109114
H	-0.6401677779	-2.8493690419	 0.3475840662	 0.116685
H	-0.9351878388	 1.6787057005	-1.0422352933	 0.095097
H	-0.7355045213	 1.8485918662	 0.7177338002	 0.117532
H	 1.5852163446	 1.6375474308	-1.3101586284	 0.108689
H	 1.6287199548	 2.510463152	 0.2326808105	 0.104413
H	 2.2079994309	-0.4083073104	 0.012600611	 0.115515
H	 1.5425440785	 0.34186859	 1.4914803608	 0.113525
81.6729	105.1761	186.645	247.1984	290.5529	349.3993	434.6964	489.3852	510.8543	585.5429	699.8769	777.0251	831.3715	865.5272	880.1929	908.4689	924.727	931.4244	964.7631	1014.1441	1020.7138	1043.5578	1122.4448	1123.2595	1137.0896	1149.9857	1153.8675	1172.0071	1201.7243	1206.1813	1242.7401	1270.3763	1272.0157	1311.904	1325.604	1454.0486	1463.4366	1481.3853	1502.5749	1514.7039	1542.8599	3020.0202	3056.1057	3066.6981	3067.7724	3070.0762	3083.1963	3106.4054	3120.2637	3133.0718	3169.9508
C1OC11COC11CCC1	C1O[C@@]21COC12CCC1	
InChI=1S/C7H10O2/c1-2-6(3-1)7(4-8-6)5-9-7/h1-5H2	InChI=1S/C7H10O2/c1-2-6(3-1)7(4-8-6)5-9-7/h1-5H2/t7-/m1/s1
