19
gdb 369	2.9406008	1.4926713	1.4696988	2.8038	73.57	-0.24891	0.07001	0.31892	1003.7796	0.15865	-422.521265	-422.51388	-422.512936	-422.552856	29.353	
C	 0.4954099249	 0.8328061865	-0.7841162111	-0.291997
O	-0.0183437362	-0.1293945154	 0.1603944475	-0.293318
C	 1.358399501	 0.1694585137	 0.184443422	 0.506439
C	 2.4494023843	-0.8910615336	 0.1008934109	-0.014667
C	 3.6802138283	-0.3277365236	-0.6270110863	-0.227341
C	 4.2932264642	 0.8077470554	 0.2343369771	-0.183455
C	 3.2372274588	 1.5763077723	 1.0717170739	-0.227342
C	 2.1000886828	 0.6103581498	 1.4404198341	-0.014667
O	 2.6450576782	-0.7438103498	 1.543617279	-0.301886
H	 0.4903088014	 0.5091790613	-1.8243348349	 0.118295
H	 0.1758033259	 1.8609911041	-0.6182764568	 0.118295
H	 2.1660184664	-1.9073711046	-0.1832456881	 0.091798
H	 4.4271081652	-1.1115352293	-0.7877425206	 0.105572
H	 3.3772427546	 0.0302450149	-1.6183400265	 0.100203
H	 4.9953894393	 0.3478953614	 0.932874502	 0.121411
H	 4.871823111	 1.4968359689	-0.3871534618	 0.09509
H	 3.7072219877	 1.9826947788	 1.9728168632	 0.105571
H	 2.8195727771	 2.427190675	 0.5201391465	 0.100203
H	 1.5139257353	 0.8954697741	 2.3173750298	 0.091798
125.0618	203.6689	210.9043	285.2571	373.0408	410.6697	445.7601	566.3544	596.6086	668.0565	782.1241	832.9687	852.5839	859.0684	879.6533	913.6195	917.4445	952.9798	965.4002	1006.4175	1059.8198	1059.9852	1106.8572	1119.6804	1122.3041	1159.9644	1186.1323	1196.9748	1228.6335	1267.3109	1302.8072	1307.9969	1312.0725	1341.4244	1366.6282	1374.8019	1464.7396	1481.2687	1487.7665	1500.7933	1552.6434	3034.4078	3034.6807	3063.7508	3074.424	3076.0791	3080.5582	3089.9287	3092.4047	3111.4152	3165.2681
C1OC11C2CCCC1O2	C1O[C@]21[C@H]1CCC[C@@H]2O1	
InChI=1S/C7H10O2/c1-2-5-7(4-8-7)6(3-1)9-5/h5-6H,1-4H2	InChI=1S/C7H10O2/c1-2-5-7(4-8-7)6(3-1)9-5/h5-6H,1-4H2/t5-,6+,7-
