19
gdb 253	2.8574178	1.7439512	1.2885777	1.1161	74.04	-0.2439	0.07881	0.32271	1005.6284	0.158864	-422.5188	-422.511395	-422.510451	-422.550919	29.052	
C	 0.8360738516	 4.0205992746	-0.4979067592	-0.26423
C	 1.1248621832	 3.491417177	 0.9116235025	-0.037829
O	-0.1218822598	 3.1114093735	 1.5287464004	-0.31726
C	 0.485814905	 2.2008265959	 0.6186464286	 0.486955
C	 0.8434193415	 0.7970879897	 0.9875197912	-0.377926
C	 1.5013732914	 0.1212332522	-0.2533117767	-0.073409
O	 1.9410374724	 1.053398317	-1.2284599444	-0.239517
C	 0.8513532015	 1.7421290929	-1.8293455536	-0.108692
C	 0.138661574	 2.6533284733	-0.819908816	-0.100049
H	 0.2200662833	 4.9212677589	-0.5576189998	 0.106776
H	 1.7515254895	 4.1602475472	-1.080177911	 0.110512
H	 1.9419302315	 3.7355207362	 1.5813777366	 0.099753
H	 1.5207411942	 0.8029505876	 1.847008629	 0.116835
H	-0.0501397436	 0.2367380181	 1.2873287067	 0.11359
H	 2.3858743182	-0.449361167	 0.0388760944	 0.115172
H	 0.7880330805	-0.578934629	-0.7165455888	 0.092745
H	 1.2693975891	 2.3086236014	-2.6671918405	 0.110751
H	 0.1380126493	 1.0079599566	-2.2395031416	 0.08863
H	-0.9322598129	 2.7188858239	-1.0294316677	 0.077194
58.0015	159.7078	257.345	345.0809	392.4665	429.5857	451.3572	514.8724	617.3293	680.7836	754.3213	812.4489	833.4926	882.1021	888.803	918.2463	944.7304	958.9656	998.1158	1013.982	1051.1374	1074.1082	1102.3068	1124.3042	1169.8028	1186.0333	1208.5573	1241.6116	1267.0045	1271.2044	1287.1313	1308.9997	1327.1639	1341.8107	1389.1905	1414.7601	1460.6408	1481.3934	1486.1843	1492.2342	1508.2186	2963.7328	2975.5426	3036.6952	3057.021	3073.4343	3077.8148	3078.0727	3101.771	3115.5814	3181.2423
C1C2OC22CCOCC12	C1[C@H]2O[C@@]32CCOC[C@H]13	
InChI=1S/C7H10O2/c1-2-8-4-5-3-6-7(1,5)9-6/h5-6H,1-4H2	InChI=1S/C7H10O2/c1-2-8-4-5-3-6-7(1,5)9-6/h5-6H,1-4H2/t5-,6+,7-/m0/s1
