19
gdb 296	2.6181571	2.1700004	1.5449153	2.0616	73.37	-0.24747	0.07592	0.32339	907.9962	0.160698	-422.565001	-422.558402	-422.557458	-422.595837	26.978	
C	-0.6024432011	 1.0226843315	-1.6853389766	-0.233717
C	-0.2161163098	 1.3860194926	-0.2298873545	-0.22349
C	 0.9405715067	 0.4422869241	 0.1110385746	 0.116036
O	 0.3982105691	-0.8571120673	 0.3866004423	-0.276113
C	 1.1813557866	-1.848674655	-0.2596201612	-0.101494
C	 1.6959112868	-1.1971553576	-1.5334438645	 0.116286
O	 0.6601260617	-0.985042989	-2.5178721495	-0.313742
C	 0.6848121649	 0.4559503932	-2.3171438199	 0.13424
C	 1.7415037308	 0.3057300557	-1.1990694349	-0.146928
H	-1.3634658113	 0.2390870407	-1.7060606391	 0.127217
H	-0.9912022939	 1.8842920483	-2.2345507564	 0.095647
H	 0.1411633816	 2.4213138387	-0.1753265167	 0.095839
H	-1.0413175383	 1.2821990595	 0.4789547739	 0.113296
H	 1.5458691649	 0.7821240271	 0.9617487212	 0.065109
H	 2.0339988637	-2.1637119717	 0.3663136348	 0.08438
H	 0.5434640131	-2.7161947452	-0.4520649293	 0.118502
H	 2.5781155687	-1.6831331147	-1.9618342404	 0.07674
H	 0.9885596946	 0.9639019464	-3.2379353571	 0.074557
H	 2.6771786912	 0.8585926826	-1.2494362967	 0.077634
131.9678	193.524	343.2522	366.931	403.0589	587.0818	627.416	654.257	768.0492	818.4294	831.1312	842.2719	875.9106	890.0731	904.786	937.6522	956.4534	964.3569	999.4212	1023.3695	1049.8493	1080.8611	1089.6575	1110.8418	1171.8032	1201.1686	1220.7382	1229.6722	1244.1324	1257.3578	1292.8089	1299.8736	1312.5172	1338.0584	1344.8916	1358.1599	1367.5818	1391.6389	1474.1444	1487.675	1495.1702	2960.8459	3012.9877	3042.9488	3048.8718	3061.9227	3069.1604	3090.6142	3102.7867	3119.3982	3136.0251
C1CC2OCC3OC1C23	C1C[C@H]2OC[C@H]3O[C@@H]1[C@@H]23	
InChI=1S/C7H10O2/c1-2-5-7-4(1)8-3-6(7)9-5/h4-7H,1-3H2	InChI=1S/C7H10O2/c1-2-5-7-4(1)8-3-6(7)9-5/h4-7H,1-3H2/t4-,5+,6-,7-/m1/s1
