19
gdb 113	3.3531121	1.163427	1.147527	2.5597	76.04	-0.22816	0.0661	0.29426	1167.5762	0.156598	-422.484627	-422.476324	-422.475379	-422.518068	30.639	
C	-1.4778229081	 1.7642622704	 0.5219962518	-0.441142
C	-1.1589924112	 2.1010472976	-0.9159290635	 0.201622
C	-1.9339653699	 1.8547301139	-2.2046808323	-0.138935
O	-1.4351212736	 3.0893837188	-2.7621609693	-0.276278
C	-0.754462189	 3.434418532	-1.5317009137	-0.12888
C	-0.2734691545	 1.1821524897	-0.1520932081	 0.410184
C	 0.1267554843	-0.2644122361	-0.4213142508	-0.364562
C	 1.5395038954	 0.229789103	-0.0402567888	-0.068286
O	 1.0534325165	 1.5721489419	 0.2058893111	-0.306723
H	-1.3064656613	 2.5376611189	 1.2655863579	 0.126879
H	-2.3219707652	 1.1112471992	 0.728371822	 0.115699
H	-1.6340637038	 0.9806654162	-2.799240394	 0.098424
H	-3.0284340718	 1.8608651002	-2.1056241389	 0.099724
H	 0.3224885472	 3.5814975713	-1.6755537149	 0.115298
H	-1.1868539267	 4.3279752728	-1.0623712998	 0.100442
H	-0.3079823292	-1.0038187843	 0.2537965766	 0.117771
H	 0.0083081883	-0.6009142596	-1.4535624763	 0.117914
H	 1.9713519771	-0.2131788519	 0.8635313	 0.110055
H	 2.2829384856	 0.2104355159	-0.8445376794	 0.110796
72.5639	107.4705	141.6352	160.1988	247.4705	369.1528	411.8389	464.8236	530.3762	617.036	789.6871	845.9526	860.1508	866.2356	876.0735	900.4548	961.3715	982.3926	992.5979	1015.4105	1026.9429	1035.9067	1102.4802	1131.7977	1147.3674	1148.6525	1159.7239	1166.9093	1200.7299	1214.5973	1235.5612	1257.1877	1304.6593	1354.4654	1362.7709	1425.462	1486.1394	1497.6296	1509.9937	1534.1774	1535.4358	2990.9155	3010.1564	3030.8529	3031.9046	3059.0518	3072.2601	3075.9935	3109.5154	3125.8589	3199.2344
C1C2(COC2)C11CCO1	C1C2(COC2)[C@@]21CCO2	
InChI=1S/C7H10O2/c1-2-9-7(1)3-6(7)4-8-5-6/h1-5H2	InChI=1S/C7H10O2/c1-2-9-7(1)3-6(7)4-8-5-6/h1-5H2/t7-/m0/s1
