19
gdb 236	3.0583423	1.8089405	1.5571971	1.8393	72.62	-0.23522	0.08073	0.31595	916.0241	0.160983	-422.541929	-422.535459	-422.534514	-422.572404	27.173	
C	 1.4577334134	-0.3109256053	 1.4255935434	-0.24823
C	 0.3057159886	 0.5019899724	 2.0344987092	 0.060702
O	 0.4762487983	 1.7809162303	 1.3388664702	-0.300433
C	 0.0090667753	 1.0407545383	 0.1829935331	 0.027372
C	-0.910398763	 0.2067477824	 1.109591839	-0.008379
C	-1.2421532265	-1.2196464168	 0.6534248168	-0.275782
C	-0.6404846504	-1.4501393598	-0.7404525912	-0.056471
O	 0.7392716278	-1.1211964286	-0.8274378689	-0.278117
C	 1.1477646216	 0.014360126	-0.0747818051	 0.116462
H	 2.4220525884	 0.0812736283	 1.7545207162	 0.108839
H	 1.4236695725	-1.3857593649	 1.6161540403	 0.104892
H	 0.22119515	 0.591830716	 3.11736108	 0.079442
H	-0.3415047709	 1.6607964003	-0.6415365065	 0.083011
H	-1.7743447271	 0.7915084715	 1.4274557336	 0.085694
H	-0.8569426645	-1.9602744084	 1.3630641802	 0.109319
H	-2.324538658	-1.3722620728	 0.5947767449	 0.104359
H	-0.7203720171	-2.4988067728	-1.0420076142	 0.107598
H	-1.2132518621	-0.8539479512	-1.4696957886	 0.092128
H	 2.0028708037	 0.441205795	-0.6016204924	 0.087596
195.571	244.6586	345.8557	399.6403	459.3154	499.7178	541.8979	632.3753	752.8852	761.4333	812.9019	848.4308	865.0016	888.8613	919.3075	959.7771	964.4789	976.5345	990.2804	1020.7528	1037.7397	1095.7408	1109.6808	1113.8924	1153.0649	1167.0266	1191.0237	1219.8642	1246.4541	1267.7543	1278.7668	1298.4077	1310.7426	1325.3433	1353.5895	1356.9489	1379.4342	1415.4256	1476.3376	1493.5518	1516.4607	2966.4288	3040.4783	3073.613	3077.1259	3082.6424	3095.7976	3107.3894	3122.615	3127.4737	3130.0405
C1C2OC3C2CCOC13	C1[C@H]2O[C@@H]3[C@H]2CCO[C@H]13	
InChI=1S/C7H10O2/c1-2-8-6-3-5-4(1)7(6)9-5/h4-7H,1-3H2	InChI=1S/C7H10O2/c1-2-8-6-3-5-4(1)7(6)9-5/h4-7H,1-3H2/t4-,5+,6+,7+/m0/s1
