19
gdb 175	3.4926963	1.6800961	1.4759372	1.2932	73.68	-0.25782	0.0934	0.35122	939.6743	0.161001	-422.554181	-422.547699	-422.546755	-422.584841	26.743	
C	 1.5674657423	-0.1220315737	-0.2865203709	-0.237651
C	 0.0331589575	-0.2252453215	-0.0131360501	-0.054531
C	 0.1691992392	 1.1543177258	 0.6883363554	-0.223599
C	 1.5638317251	 0.6043704581	 1.0961639147	-0.054532
C	 1.2002107382	-0.5710335143	 2.0137150607	 0.10312
O	 0.5813788085	-0.1906063538	 3.2359215355	-0.268359
C	-0.5980967841	-0.9576069528	 3.3265466957	 0.011865
O	-1.1003542448	-1.1020880039	 2.017148706	-0.268358
C	 0.0386709518	-1.200579759	 1.1719318788	 0.103118
H	 2.1408969727	-1.0504997297	-0.3833955016	 0.092131
H	 1.804005343	 0.5488356965	-1.1146338133	 0.104541
H	-0.6900204192	-0.4093616808	-0.8069022884	 0.06875
H	 0.2470851564	 1.9722150026	-0.030818777	 0.096239
H	-0.5386094007	 1.4020591617	 1.479729899	 0.111658
H	 2.3780324362	 1.2535060148	 1.4165578805	 0.06875
H	 2.0421661779	-1.247464624	 2.2031273734	 0.072418
H	-0.3832416817	-1.9473718035	 3.7702932149	 0.083186
H	-1.3307995531	-0.4220793757	 3.9370684746	 0.118835
H	 0.2070489249	-2.242084677	 0.8731997725	 0.072419
168.4005	191.1779	323.2275	388.4345	456.5011	558.0054	583.7724	725.742	788.8129	823.6483	851.077	853.5322	862.3088	884.8773	948.011	956.819	991.7978	1017.306	1028.2642	1032.3481	1066.7481	1077.5717	1082.308	1106.0498	1114.1886	1117.8252	1185.2957	1223.4687	1233.6476	1237.246	1244.2625	1247.7503	1294.5038	1309.144	1337.8212	1359.4777	1365.0323	1429.158	1482.6754	1517.2936	1539.2556	2931.7051	3024.6755	3037.2147	3046.5001	3078.3073	3088.0382	3116.8996	3121.5756	3126.5658	3142.1058
C1C2CC1C1OCOC21	C1[C@@H]2C[C@H]1[C@H]1OCO[C@@H]21	
InChI=1S/C7H10O2/c1-4-2-5(1)7-6(4)8-3-9-7/h4-7H,1-3H2	InChI=1S/C7H10O2/c1-4-2-5(1)7-6(4)8-3-9-7/h4-7H,1-3H2/t4-,5+,6-,7+
