19
gdb 313	2.7096537	1.9049767	1.415362	2.9408	74.01	-0.25279	0.08311	0.33590000000000003	961.9139	0.159965	-422.560895	-422.553731	-422.552787	-422.592391	28.382	
C	 0.5782007545	 1.3967612363	-0.9016690748	-0.386391
C	 0.3510551605	 0.3413052976	 0.1586181159	-0.094049
C	 1.5002033734	-0.0486358498	 1.0664574673	-0.103841
O	 2.610216741	-0.3143498106	 0.2032549799	-0.261684
C	 2.1586760774	-0.6275394984	-1.0913140139	 0.202075
O	 2.0037602042	-2.0175486521	-1.3488397525	-0.279921
C	 0.6470028528	-2.3227127361	-1.6895463011	-0.071805
C	 0.0041144812	-0.9951395332	-2.1352398354	-0.342964
C	 0.7622693909	-0.0473621232	-1.2432065261	 0.292786
H	-0.3016272228	 1.9044147923	-1.2829329445	 0.116606
H	 1.4655013189	 2.0207443373	-0.8369772366	 0.123024
H	-0.6619456713	 0.1643725117	 0.5019671679	 0.092222
H	 1.8161725753	 0.7332911676	 1.7657520429	 0.108557
H	 1.2338892152	-0.9428350165	 1.6483450631	 0.102996
H	 2.9299513857	-0.2478633606	-1.7714001121	 0.082919
H	 0.6581319041	-3.0873598515	-2.4716197139	 0.107842
H	 0.1190962783	-2.7323289899	-0.8158358407	 0.095578
H	 0.2049979008	-0.7991684285	-3.1949560222	 0.109829
H	-1.0778545101	-0.9779874524	-1.9826708233	 0.10622
122.1077	157.1742	220.2575	333.8513	375.4345	449.5321	528.4077	594.1039	665.1836	723.5619	804.3842	834.5526	880.2033	909.7038	924.4332	928.4285	955.0624	973.6011	982.2463	1038.4537	1043.8749	1066.4774	1089.5351	1102.7958	1121.485	1129.4566	1183.5469	1226.843	1232.3532	1260.7182	1297.102	1309.176	1344.8019	1372.9416	1390.7176	1398.8776	1427.6178	1490.0227	1491.5575	1522.8482	1526.7504	2993.8732	3000.9134	3038.6093	3043.9651	3062.0771	3081.2419	3103.1557	3119.5285	3175.5259	3207.8863
C1C2COC3OCCC123	C1[C@@H]2CO[C@H]3OCC[C@@]123	
InChI=1S/C7H10O2/c1-2-8-6-7(1)3-5(7)4-9-6/h5-6H,1-4H2	InChI=1S/C7H10O2/c1-2-8-6-7(1)3-5(7)4-9-6/h5-6H,1-4H2/t5-,6-,7-/m1/s1
