19
gdb 215	2.8421798	1.8960391	1.5927458	0.772	72.97	-0.2407	0.08535	0.32605	911.5332	0.160368	-422.548363	-422.541664	-422.54072	-422.579047	27.946	
C	 2.7009215879	 2.4838376282	 1.2460492036	-0.33729
C	 1.5723042585	 1.6115718406	 1.7394154208	 0.10771
O	 0.2380704779	 1.937165116	 1.4278512602	-0.276205
C	-0.2273511866	 1.4492049195	 0.1707622823	 0.084437
C	-0.1301225412	-0.0869942827	 0.0400201733	-0.09103
O	 1.1059513234	-0.3612540505	-0.6362545379	-0.27347
C	 1.8297714859	 0.877340198	-0.697173137	 0.075095
C	 0.714747696	 1.8968800117	-0.9564381105	-0.258206
C	 2.4871913484	 1.1045603641	 0.6554003826	-0.05288
H	 2.4410741558	 3.3537930056	 0.6548537847	 0.120284
H	 3.5573148022	 2.6256490371	 1.896976727	 0.112436
H	 1.6538463809	 1.1925814241	 2.738188405	 0.097129
H	-1.2517221923	 1.814660057	 0.0842813574	 0.084921
H	-0.1521605159	-0.5632272886	 1.0271580724	 0.107644
H	-0.9522996245	-0.4910544489	-0.5623046442	 0.103689
H	 2.5616120254	 0.7844908878	-1.5028345108	 0.079469
H	 0.995853061	 2.946962096	-0.8761709402	 0.11027
H	 0.274588266	 1.7169967554	-1.9413096556	 0.10897
H	 3.1974080011	 0.3300949197	 0.9278512668	 0.097026
169.9334	229.1815	319.8923	395.3175	453.8513	471.3522	500.3594	608.6828	729.8284	754.8059	801.675	823.248	855.3999	888.0578	895.1543	929.5387	951.215	962.9293	997.0265	1012.5196	1042.2177	1055.8183	1082.9001	1103.1037	1115.7572	1130.2265	1163.5687	1171.8209	1216.0538	1237.2189	1242.8859	1304.7105	1311.7149	1337.4553	1363.8147	1368.1007	1388.7116	1411.1299	1473.5571	1493.8305	1511.9477	3026.0747	3066.6996	3069.6496	3089.0284	3107.9725	3133.85	3138.9603	3142.9369	3158.793	3225.8327
C1C2OC3COC(C3)C12	C1[C@H]2O[C@@H]3CO[C@@H](C3)[C@@H]12	
InChI=1S/C7H10O2/c1-4-3-8-6(1)5-2-7(5)9-4/h4-7H,1-3H2	InChI=1S/C7H10O2/c1-4-3-8-6(1)5-2-7(5)9-4/h4-7H,1-3H2/t4-,5+,6-,7+/m0/s1
