19
gdb 314	2.7883989	1.8264655	1.3396316	1.801	74.04	-0.22775	0.07964	0.30739	984.7529	0.159463	-422.543411	-422.536281	-422.535337	-422.57476	28.661	
C	-0.2368918359	-0.2159809749	-0.0453799741	-0.389814
C	 1.2465563511	-0.18467295	-0.3927438924	 0.003039
O	 1.6292973269	 0.6562089817	-1.4506340946	-0.261707
C	 1.9119333162	 1.9462649644	-0.892782084	-0.083273
C	 0.9589209158	 2.1198878077	 0.3092823793	-0.114504
C	 1.5659937809	 2.709809854	 1.6016949151	-0.245215
C	 1.9284483738	 1.4532766808	 2.4192455872	-0.102109
O	 0.9329858885	 0.486857935	 2.081393069	-0.286144
C	 0.6953732122	 0.6614892391	 0.7198033534	 0.433001
H	-0.9416605553	 0.2359105619	-0.7361165859	 0.117531
H	-0.5861573617	-1.1105083496	 0.4611346169	 0.122657
H	 1.8605429591	-1.0662408113	-0.2375131366	 0.100958
H	 2.9610673996	 1.9912132556	-0.5583709356	 0.087297
H	 1.7705240348	 2.6875618454	-1.6836490807	 0.109408
H	 0.0487695881	 2.6469307219	 0.0118955996	 0.082212
H	 2.4327460111	 3.3505836777	 1.417283954	 0.105149
H	 0.8177507367	 3.3012772992	 2.135973192	 0.113009
H	 2.9270263767	 1.0822428925	 2.1413483063	 0.096333
H	 1.8998486914	 1.6011897289	 3.5008490513	 0.112173
135.4182	182.1297	226.5271	352.8624	400.0485	428.624	547.6964	586.6926	608.9295	658.3993	800.2013	825.8058	847.4408	878.6553	918.2119	948.7195	963.5	987.9248	995.7901	1025.8851	1046.0203	1052.6633	1065.6918	1086.8288	1131.9236	1141.9469	1205.4221	1214.2905	1241.6911	1251.7006	1270.0098	1285.7446	1333.6715	1338.6698	1367.5177	1389.5503	1401.8167	1471.2315	1488.896	1510.7952	1519.9845	2972.0772	2986.8953	3058.1303	3070.0089	3094.9584	3102.2764	3113.1318	3123.015	3160.0161	3217.4243
C1C2OCC3CCOC123	C1[C@H]2OC[C@@H]3CCO[C@]123	
InChI=1S/C7H10O2/c1-2-9-7-3-6(7)8-4-5(1)7/h5-6H,1-4H2	InChI=1S/C7H10O2/c1-2-9-7-3-6(7)8-4-5(1)7/h5-6H,1-4H2/t5-,6+,7-/m0/s1
