19
gdb 192	2.5359787	2.1617911	2.060204	2.455	71.63	-0.24623	0.08047	0.3267	832.6427	0.162739	-422.600003	-422.594165	-422.593221	-422.629745	25.752	
C	 1.2534589565	 0.9802866866	-2.2286265167	-0.212984
C	 1.8316888307	-0.307156096	-1.6236599291	 0.07542
C	 0.8322968752	-0.9645176155	-0.6392030415	-0.231369
C	 0.4614278473	 0.0681803775	 0.4544404065	 0.07542
C	-0.1088582009	 1.353448001	-0.1625731541	-0.212984
C	 1.1429970355	 1.8146495474	-0.9362920334	-0.100272
C	 2.3108287445	 1.2032551143	-0.0558189332	 0.199631
O	 2.9315479923	 0.2239390845	-0.8666570405	-0.258351
O	 1.6760506157	 0.5678383465	 1.0373952955	-0.258351
H	 1.9713751109	 1.4036858042	-2.9357931085	 0.10473
H	 0.2935471104	 0.8509474658	-2.7353522982	 0.095071
H	 2.2311518309	-1.0201508765	-2.3474084134	 0.076555
H	-0.0640275835	-1.3087959486	-1.1680409653	 0.094836
H	 1.3059062384	-1.8318919205	-0.1702517254	 0.114334
H	-0.1419958881	-0.370108567	 1.2516398026	 0.076555
H	-0.9763281895	 1.1987892758	-0.8094939554	 0.095071
H	-0.3831769909	 2.0486350351	 0.6350605216	 0.104729
H	 1.2217940182	 2.8918797997	-1.078899703	 0.073943
H	 3.0737120865	 1.8812961857	 0.3247487714	 0.088019
303.1979	359.9943	426.973	472.9453	529.11	559.2461	610.7218	705.0323	797.6186	798.6803	839.2928	851.1928	886.566	906.4519	919.7087	925.1232	937.6336	982.2223	999.8118	1005.1365	1038.0204	1039.0654	1087.3957	1112.1023	1112.6493	1189.8938	1195.093	1242.9421	1254.5732	1272.793	1302.368	1311.4548	1320.0438	1326.3959	1355.7821	1368.1234	1382.2998	1391.261	1468.149	1484.4525	1502.3222	3041.3625	3058.8519	3062.3998	3093.669	3095.5075	3099.2966	3107.7952	3111.0058	3117.1136	3131.9017
C1C2CC3CC1C(O2)O3	C1[C@@H]2C[C@@H]3C[C@H]1[C@H](O2)O3	
InChI=1S/C7H10O2/c1-4-2-6-3-5(1)8-7(4)9-6/h4-7H,1-3H2	InChI=1S/C7H10O2/c1-4-2-6-3-5(1)8-7(4)9-6/h4-7H,1-3H2/t4-,5+,6-,7+
